 &FCI NORB= 15,NELEC= 10,MS2= 0,
  ORBSYM=1,1,1,1,1,1,1,1,1,1,1,1,1,1,1,
  ISYM=0,
 /
  0.4122462585561771E+01   1   1   1   1
 -0.3525737425898487E+00   2   1   1   1
  0.4897068196967488E-01   2   1   2   1
  0.8719618371396106E+00   2   2   1   1
 -0.9752325119473937E-02   2   2   2   1
  0.6344497471541459E+00   2   2   2   2
 -0.1119452866897636E-01   3   1   1   1
  0.1179206469253113E-02   3   1   2   1
 -0.1320054739240554E-02   3   1   2   2
  0.1440693130671018E-01   3   1   3   1
  0.4989886041322045E-02   3   2   1   1
 -0.6827525734238573E-03   3   2   2   1
 -0.4880185098009282E-02   3   2   2   2
  0.1781403005570915E-01   3   2   3   1
  0.1267125561342715E+00   3   2   3   2
  0.7404929387576882E+00   3   3   1   1
 -0.4828638151227915E-02   3   3   2   1
  0.5712866666252649E+00   3   3   2   2
  0.3441624906383404E-02   3   3   3   1
  0.4556568415699974E-01   3   3   3   2
  0.5819415016432470E+00   3   3   3   3
  0.4570903072003806E-16   4   1   1   1
 -0.1052618431464760E-16   4   1   2   1
 -0.7399647949021506E-18   4   1   2   2
 -0.7237473017814369E-17   4   1   3   1
 -0.9815417792782832E-17   4   1   3   2
  0.1652598299243671E-15   4   1   3   3
  0.1449103747174423E-01   4   1   4   1
 -0.1537143485265981E-15   4   2   1   1
 -0.2158239949603957E-17   4   2   2   1
 -0.1811909282759034E-16   4   2   2   2
 -0.1117744677196775E-16   4   2   3   1
 -0.8473039977974217E-16   4   2   3   2
  0.2536153350425921E-14   4   2   3   3
  0.1772812566330337E-01   4   2   4   1
  0.1244335450805891E+00   4   2   4   2
 -0.1594516454191534E-15   4   3   1   1
 -0.2964615315390051E-18   4   3   2   1
 -0.1604636573508768E-15   4   3   2   2
  0.1743939194442934E-15   4   3   3   1
  0.2653151136289278E-14   4   3   3   2
 -0.3529328318290599E-17   4   3   3   3
 -0.2372024248400125E-02   4   3   4   1
 -0.4104545414436209E-01   4   3   4   2
  0.4026336000786122E-01   4   3   4   3
  0.7398075928279925E+00   4   4   1   1
 -0.4740363728885866E-02   4   4   2   1
  0.5721223540675283E+00   4   4   2   2
 -0.3314453307077081E-02   4   4   3   1
 -0.4368901352108540E-01   4   4   3   2
  0.4979360349515524E+00   4   4   3   3
 -0.2098202254302572E-15   4   4   4   1
 -0.3037934487304383E-14   4   4   4   2
  0.1144917494144693E-15   4   4   4   3
  0.5766722096634251E+00   4   4   4   4
  0.1104809531396737E+00   5   1   1   1
 -0.1158329524749585E-01   5   1   2   1
  0.1214397559506268E-01   5   1   2   2
 -0.3772298719902158E-03   5   1   3   1
  0.2569353885585497E-03   5   1   3   2
  0.4057614294177884E-02   5   1   3   3
  0.1495542547495874E-16   5   1   4   1
  0.2805373121306243E-17   5   1   4   2
  0.1669671345627677E-16   5   1   4   3
  0.3859399409805451E-02   5   1   4   4
  0.2437634497314497E-01   5   1   5   1
 -0.5135304007683703E-01   5   2   1   1
  0.6080068571914067E-02   5   2   2   1
  0.2324716958385232E-01   5   2   2   2
  0.2692851256059685E-03   5   2   3   1
  0.8289288691603023E-03   5   2   3   2
  0.3949698192737191E-02   5   2   3   3
  0.1093519534905302E-16   5   2   4   1
 -0.2775557561562891E-16   5   2   4   2
  0.1664250334765249E-15   5   2   4   3
  0.1820210622292786E-02   5   2   4   4
  0.1875009144793411E-01   5   2   5   1
  0.9185496710598116E-01   5   2   5   2
 -0.1961619139064531E-02   5   3   1   1
  0.2937674182741926E-03   5   3   2   1
  0.8452414989548418E-03   5   3   2   2
 -0.3292782996314679E-02   5   3   3   1
  0.5576681346913879E-03   5   3   3   2
  0.5600737004881168E-02   5   3   3   3
  0.1058600601654743E-16   5   3   4   1
  0.1350373805830696E-15   5   3   4   2
  0.3338258489082868E-15   5   3   4   3
 -0.5763501192036617E-02   5   3   4   4
  0.6309419506802836E-03   5   3   5   1
  0.2496734660984649E-02   5   3   5   2
  0.2735565039342440E-01   5   3   5   3
  0.2168978216546940E-15   5   4   1   1
 -0.8799295893432892E-17   5   4   2   1
  0.1570102250539520E-16   5   4   2   2
  0.1680703949765664E-16   5   4   3   1
  0.1810888678593914E-15   5   4   3   2
  0.3917665206602398E-15   5   4   3   3
 -0.3557810209644052E-02   5   4   4   1
 -0.2128424572166685E-02   5   4   4   2
 -0.5429927406386215E-02   5   4   4   3
 -0.3937907618474021E-15   5   4   4   4
 -0.1827759457320851E-16   5   4   5   1
 -0.1268076084675468E-15   5   4   5   2
 -0.4400759677459717E-17   5   4   5   3
  0.2704350917793090E-01   5   4   5   4
  0.8571189314268011E+00   5   5   1   1
 -0.1083064224517678E-01   5   5   2   1
  0.5725191313439147E+00   5   5   2   2
 -0.2947143892260439E-03   5   5   3   1
  0.2311786292298809E-02   5   5   3   2
  0.5188358687888327E+00   5   5   3   3
 -0.2558717127065790E-16   5   5   4   1
 -0.1639313684798083E-15   5   5   4   2
 -0.9714451465470120E-16   5   5   4   3
  0.5179410947914277E+00   5   5   4   4
 -0.1012393063985718E-01   5   5   5   1
 -0.6506029846632405E-01   5   5   5   2
 -0.2337901507616406E-02   5   5   5   3
  0.1656660919557851E-15   5   5   5   4
  0.6558771709544011E+00   5   5   5   5
  0.1724806051149843E+00   6   1   1   1
 -0.2505458529952112E-01   6   1   2   1
  0.2855836645329461E-02   6   1   2   2
 -0.5121499616496075E-03   6   1   3   1
  0.4068245648695481E-03   6   1   3   2
  0.1599437613752519E-02   6   1   3   3
 -0.3397733966265513E-15   6   1   4   1
 -0.3986848557454431E-15   6   1   4   2
  0.3885509535644927E-16   6   1   4   3
  0.1510684169192249E-02   6   1   4   4
  0.2304166233743433E-02   6   1   5   1
 -0.6341006469547328E-02   6   1   5   2
 -0.2808735819829801E-03   6   1   5   3
  0.9814740166425029E-16   6   1   5   4
  0.6787123559744254E-02   6   1   5   5
  0.1344548632327465E-01   6   1   6   1
 -0.2199659380749008E+00   6   2   1   1
  0.4867259806025048E-02   6   2   2   1
 -0.1028628041602809E+00   6   2   2   2
  0.5191492141001329E-03   6   2   3   1
  0.3082484269296578E-03   6   2   3   2
 -0.7211132159767226E-01   6   2   3   3
 -0.3055654416560943E-15   6   2   4   1
 -0.9320343975771639E-15   6   2   4   2
 -0.2556548722720819E-15   6   2   4   3
 -0.7377969048724071E-01   6   2   4   4
 -0.7719405428814310E-02   6   2   5   1
 -0.1193469817873014E-01   6   2   5   2
 -0.4523954928604508E-03   6   2   5   3
  0.4244651505280750E-15   6   2   5   4
 -0.8568453515114730E-01   6   2   5   5
 -0.1177264565217939E-02   6   2   6   1
  0.4198178364783820E-01   6   2   6   2
 -0.2853201279709748E-04   6   3   1   1
  0.1678895233757132E-03   6   3   2   1
  0.3296548249111833E-03   6   3   2   2
 -0.4216205850432331E-02   6   3   3   1
  0.5895780761849293E-02   6   3   3   2
  0.1179088950099919E-01   6   3   3   3
 -0.7004200144140535E-16   6   3   4   1
 -0.9416566918579727E-15   6   3   4   2
  0.8725116983077097E-15   6   3   4   3
 -0.1125582736050845E-01   6   3   4   4
 -0.2185684897808897E-03   6   3   5   1
 -0.6255924911597597E-03   6   3   5   2
  0.3636717278038755E-02   6   3   5   3
 -0.3435565634063442E-16   6   3   5   4
  0.7818256705978659E-03   6   3   5   5
 -0.7523177483496790E-04   6   3   6   1
 -0.3361139290888659E-03   6   3   6   2
  0.2269381888353806E-01   6   3   6   3
 -0.7821459092696528E-14   6   4   1   1
  0.1223981667023777E-15   6   4   2   1
 -0.3438401951152571E-14   6   4   2   2
 -0.5735895360569308E-16   6   4   3   1
 -0.9518075346978683E-15   6   4   3   2
 -0.2268563115802504E-14   6   4   3   3
 -0.4648875061116937E-02   6   4   4   1
  0.1488541867857102E-02   6   4   4   2
 -0.1060753649070211E-01   6   4   4   3
 -0.3386038582878280E-14   6   4   4   4
  0.1891429865174773E-16   6   4   5   1
  0.8178645206826513E-15   6   4   5   2
 -0.4090999728648820E-16   6   4   5   3
  0.3168260350881077E-02   6   4   5   4
 -0.3915395636545586E-14   6   4   5   5
  0.4886374254032448E-16   6   4   6   1
  0.1960671208722786E-14   6   4   6   2
 -0.7647962124712748E-15   6   4   6   3
  0.2104603766567229E-01   6   4   6   4
 -0.5086817820154844E-01   6   5   1   1
 -0.1089373880309666E-02   6   5   2   1
 -0.3351070261962424E-01   6   5   2   2
 -0.1236785176289244E-03   6   5   3   1
 -0.7342075657715418E-03   6   5   3   2
 -0.1903042288558800E-01   6   5   3   3
  0.1476149728168487E-15   6   5   4   1
  0.9467524420686546E-15   6   5   4   2
 -0.2457886325024639E-15   6   5   4   3
 -0.1919331539912999E-01   6   5   4   4
 -0.6255868493740222E-02   6   5   5   1
 -0.1467771702504884E-01   6   5   5   2
 -0.7962440486057988E-04   6   5   5   3
 -0.4868609855546158E-15   6   5   5   4
 -0.2275409345013943E-01   6   5   5   5
  0.1720901188189927E-02   6   5   6   1
  0.1657674730668325E-01   6   5   6   2
  0.2863689322172721E-03   6   5   6   3
  0.5178149575790769E-15   6   5   6   4
  0.1313183115185964E-01   6   5   6   5
  0.4153524697585569E+00   6   6   1   1
 -0.2334527580369179E-02   6   6   2   1
  0.3599039500075617E+00   6   6   2   2
 -0.4024408451964522E-03   6   6   3   1
 -0.2081110678234832E-02   6   6   3   2
  0.3452610665972442E+00   6   6   3   3
  0.3717864774724355E-15   6   6   4   1
  0.3586540786582049E-14   6   6   4   2
 -0.1789367265470077E-14   6   6   4   3
  0.3441186189159972E+00   6   6   4   4
  0.6300472533794398E-02   6   6   5   1
  0.2272098244529970E-01   6   6   5   2
  0.7233024863181341E-03   6   6   5   3
  0.3590877595271991E-15   6   6   5   4
  0.3259233379428883E+00   6   6   5   5
  0.9599243996883874E-04   6   6   6   1
 -0.2299343285569674E-01   6   6   6   2
 -0.6452596796467439E-03   6   6   6   3
  0.1075528555105620E-14   6   6   6   4
 -0.6595952149556827E-02   6   6   6   5
  0.2946212055989585E+00   6   6   6   6
 -0.9518786528585621E-14   7   1   1   1
  0.1193520615235059E-14   7   1   2   1
 -0.6272871269334980E-15   7   1   2   2
  0.6262118443638864E-14   7   1   3   1
  0.7469585456350465E-14   7   1   3   2
  0.1140997253210328E-14   7   1   3   3
 -0.1028783218003309E-01   7   1   4   1
 -0.1218838248203449E-01   7   1   4   2
  0.1362298423695789E-02   7   1   4   3
 -0.1199045940293665E-14   7   1   4   4
 -0.6698280960349844E-16   7   1   5   1
  0.4421876208834767E-15   7   1   5   2
 -0.1510036657651934E-14   7   1   5   3
  0.2656942235778752E-02   7   1   5   4
 -0.4636982799676315E-15   7   1   5   5
 -0.3757594325719726E-15   7   1   6   1
  0.4395897708342478E-15   7   1   6   2
 -0.1752287551171072E-14   7   1   6   3
  0.3254466589558434E-02   7   1   6   4
 -0.2515077989623249E-15   7   1   6   5
 -0.4218127494710260E-15   7   1   6   6
  0.7311064629140722E-02   7   1   7   1
  0.7556160884852529E-14   7   2   1   1
 -0.3515195466132615E-15   7   2   2   1
  0.1874450882658080E-14   7   2   2   2
  0.5409902925296788E-14   7   2   3   1
  0.1956733013737822E-13   7   2   3   2
  0.1038199157313432E-14   7   2   3   3
 -0.8906213390834103E-02   7   2   4   1
 -0.3039293996106245E-01   7   2   4   2
 -0.6310609605419284E-02   7   2   4   3
  0.3213053637041124E-14   7   2   4   4
  0.4605646359488692E-15   7   2   5   1
  0.1220699414353167E-14   7   2   5   2
 -0.6802056154794770E-14   7   2   5   3
  0.1166186635281044E-01   7   2   5   4
  0.2182719659161849E-14   7   2   5   5
  0.3752589022745943E-15   7   2   6   1
 -0.2597206304189026E-15   7   2   6   2
 -0.8406456412056451E-14   7   2   6   3
  0.1498130941049097E-01   7   2   6   4
 -0.1229038030202412E-14   7   2   6   5
  0.4360820079239772E-15   7   2   6   6
  0.6262058240533065E-02   7   2   7   1
  0.2500334558046773E-01   7   2   7   2
  0.1407527861394100E-12   7   3   1   1
 -0.2430217782044340E-14   7   3   2   1
  0.6439292695710749E-13   7   3   2   2
 -0.3569680595766952E-15   7   3   3   1
 -0.9971217644968999E-14   7   3   3   2
  0.5008334250848164E-13   7   3   3   3
 -0.1950901049999537E-02   7   3   4   1
 -0.2556804739619183E-01   7   3   4   2
  0.3438483980357746E-02   7   3   4   3
  0.5413458568284316E-13   7   3   4   4
 -0.1410713256619540E-15   7   3   5   1
 -0.1381268824362028E-13   7   3   5   2
 -0.2246135711507589E-14   7   3   5   3
 -0.1908623716729014E-02   7   3   5   4
  0.6823734360885315E-13   7   3   5   5
  0.1234200272499453E-14   7   3   6   1
 -0.2294865686369718E-13   7   3   6   2
 -0.5768497658709126E-14   7   3   6   3
 -0.9914234545477567E-02   7   3   6   4
 -0.7038369453232773E-14   7   3   6   5
  0.8460772180749210E-14   7   3   6   6
  0.1438205572202015E-02   7   3   7   1
  0.1671327982686636E-02   7   3   7   2
  0.1679536907488613E-01   7   3   7   3
 -0.2298010992956794E+00   7   4   1   1
  0.4076512289955942E-02   7   4   2   1
 -0.1014655866083182E+00   7   4   2   2
 -0.1588177460768056E-02   7   4   3   1
 -0.2673782163189219E-01   7   4   3   2
 -0.8634243234841503E-01   7   4   3   3
  0.9267285831955629E-15   7   4   4   1
  0.1052635626233589E-13   7   4   4   2
 -0.3423910460709223E-15   7   4   4   3
 -0.7857977460661832E-01   7   4   4   4
  0.2551641396436799E-03   7   4   5   1
  0.2273402410368445E-01   7   4   5   2
 -0.2017438035577817E-02   7   4   5   3
  0.8640007112536985E-15   7   4   5   4
 -0.1113431283938352E+00   7   4   5   5
 -0.1992977792787752E-02   7   4   6   1
  0.3803583149490282E-01   7   4   6   2
 -0.1148792318208151E-01   7   4   6   3
  0.6432788329790995E-14   7   4   6   4
  0.1088009046183577E-01   7   4   6   5
 -0.1462303695299002E-01   7   4   6   6
 -0.1308211893848166E-14   7   4   7   1
 -0.2861426373623743E-14   7   4   7   2
 -0.2977652846514189E-13   7   4   7   3
  0.6742089430312731E-01   7   4   7   4
  0.3928378422854665E-14   7   5   1   1
  0.8800354684616960E-16   7   5   2   1
  0.3055823258716837E-14   7   5   2   2
 -0.2560050568683006E-14   7   5   3   1
 -0.1634610280248569E-13   7   5   3   2
 -0.3569047319724320E-14   7   5   3   3
  0.4190619428461112E-02   7   5   4   1
  0.2602452111646624E-01   7   5   4   2
 -0.7331755917325242E-02   7   5   4   3
  0.5990556456544803E-14   7   5   4   4
  0.2872951527420559E-15   7   5   5   1
  0.1928422970354920E-15   7   5   5   2
  0.7482620446375762E-14   7   5   5   3
 -0.1308628684683756E-01   7   5   5   4
  0.1997915898510116E-14   7   5   5   5
 -0.2146659950423807E-15   7   5   6   1
 -0.1401764988806509E-14   7   5   6   2
 -0.4089719014832571E-14   7   5   6   3
  0.4783235212118007E-02   7   5   6   4
 -0.1168227840853131E-16   7   5   6   5
  0.1856055744363256E-14   7   5   6   6
 -0.3004394744158601E-02   7   5   7   1
 -0.7152417365138231E-02   7   5   7   2
 -0.7963471406244149E-02   7   5   7   3
  0.7570333249162786E-14   7   5   7   4
  0.1622102093295226E-01   7   5   7   5
  0.3872706646821916E-15   7   6   1   1
  0.4433031632750106E-16   7   6   2   1
  0.1265509561637308E-14   7   6   2   2
 -0.3404110218534206E-14   7   6   3   1
 -0.3322700187907701E-13   7   6   3   2
 -0.1493991579346245E-13   7   6   3   3
  0.5478512737833752E-02   7   6   4   1
  0.5067315945183323E-01   7   6   4   2
 -0.2461284534967166E-01   7   6   4   3
  0.1494609793895574E-13   7   6   4   4
 -0.2982023960038495E-15   7   6   5   1
 -0.1294225685823103E-14   7   6   5   2
 -0.4438389116141490E-14   7   6   5   3
  0.5257481239530859E-02   7   6   5   4
  0.3778094832954560E-15   7   6   5   5
 -0.1026754280420350E-15   7   6   6   1
  0.3655929725621121E-15   7   6   6   2
 -0.1671492805277452E-13   7   6   6   3
  0.2117064216174994E-01   7   6   6   4
  0.7011535449463757E-15   7   6   6   5
  0.3924933031129268E-14   7   6   6   6
 -0.3727081397854680E-02   7   6   7   1
  0.2752669875180459E-02   7   6   7   2
 -0.2236921972115313E-01   7   6   7   3
  0.2478052485432869E-13   7   6   7   4
  0.1456256112046334E-01   7   6   7   5
  0.5987849322693073E-01   7   6   7   6
  0.4547155359956022E+00   7   7   1   1
 -0.2608904435828875E-02   7   7   2   1
  0.3780301046269339E+00   7   7   2   2
 -0.4271794417394503E-03   7   7   3   1
 -0.2068023998536336E-01   7   7   3   2
  0.3476505541173734E+00   7   7   3   3
 -0.1769960046582586E-15   7   7   4   1
  0.1880570352219557E-13   7   7   4   2
 -0.2183583175385806E-13   7   7   4   3
  0.3864204507686547E+00   7   7   4   4
  0.9882829969607362E-03   7   7   5   1
  0.9049189833765237E-03   7   7   5   2
 -0.6728162430835617E-02   7   7   5   3
  0.6443196670646856E-14   7   7   5   4
  0.3563490139353544E+00   7   7   5   5
  0.1055722021002386E-02   7   7   6   1
 -0.2481741455591785E-01   7   7   6   2
 -0.2002653595757335E-01   7   7   6   3
  0.1968564200538481E-13   7   7   6   4
 -0.2509622662447995E-02   7   7   6   5
  0.2971044933031259E+00   7   7   6   6
  0.1915785238781886E-15   7   7   7   1
  0.1803071580930293E-13   7   7   7   2
  0.1188632525739308E-13   7   7   7   3
 -0.1479125369805087E-01   7   7   7   4
  0.1196959198423997E-13   7   7   7   5
  0.6600275881396556E-13   7   7   7   6
  0.3402940859760957E+00   7   7   7   7
  0.4062179505127503E-02   8   1   1   1
 -0.3325732085354564E-03   8   1   2   1
  0.7283982081417613E-03   8   1   2   2
 -0.1020028181555580E-01   8   1   3   1
 -0.1223855360516663E-01   8   1   3   2
 -0.2220695029701285E-02   8   1   3   3
 -0.6297826335140231E-14   8   1   4   1
 -0.7464806496462056E-14   8   1   4   2
  0.7320804119165247E-15   8   1   4   3
  0.1990805769186824E-02   8   1   4   4
 -0.5230387351298828E-04   8   1   5   1
 -0.3163358997011974E-03   8   1   5   2
  0.2475066105389789E-02   8   1   5   3
  0.1616118534570471E-14   8   1   5   4
  0.2190638398319077E-03   8   1   5   5
  0.1392329477529703E-03   8   1   6   1
 -0.2481173783664471E-03   8   1   6   2
  0.2958897915459481E-02   8   1   6   3
  0.2036240100145026E-14   8   1   6   4
  0.1376457813770944E-03   8   1   6   5
  0.2026272465238957E-03   8   1   6   6
  0.4371198227600542E-16   8   1   7   1
  0.5323432666903827E-16   8   1   7   2
  0.1144266972841201E-14   8   1   7   3
  0.1187175850902468E-02   8   1   7   4
 -0.1653408313040394E-16   8   1   7   5
 -0.9540979117872439E-17   8   1   7   6
  0.1461397967116653E-03   8   1   7   7
  0.7235088155602321E-02   8   1   8   1
  0.7981473502967170E-03   8   2   1   1
  0.2432692104865986E-03   8   2   2   1
  0.2615981215150292E-02   8   2   2   2
 -0.8870165320414233E-02   8   2   3   1
 -0.3216013409914682E-01   8   2   3   2
  0.2672925390826150E-02   8   2   3   3
 -0.5474783902051014E-14   8   2   4   1
 -0.1892133368389115E-13   8   2   4   2
 -0.3439522971993014E-14   8   2   4   3
 -0.1419636592600252E-02   8   2   4   4
 -0.2756675853837902E-03   8   2   5   1
 -0.1248479469428436E-02   8   2   5   2
  0.1108021792298373E-01   8   2   5   3
  0.7077604019349593E-14   8   2   5   4
  0.1120201350554606E-02   8   2   5   5
 -0.1260038624166496E-03   8   2   6   1
 -0.3326041292862785E-03   8   2   6   2
  0.1374800478508268E-01   8   2   6   3
  0.9183842922255714E-14   8   2   6   4
  0.5316910201713246E-03   8   2   6   5
  0.7813164474019382E-03   8   2   6   6
  0.2512299721556255E-16   8   2   7   1
  0.6662422349923425E-15   8   2   7   2
  0.5427516075462435E-15   8   2   7   3
  0.1092854166314177E-02   8   2   7   4
 -0.1344410693882025E-16   8   2   7   5
  0.1717376241217039E-15   8   2   7   6
 -0.9225659886155483E-02   8   2   7   7
  0.6213639338983556E-02   8   2   8   1
  0.2370231537669494E-01   8   2   8   2
 -0.2299044039349724E+00   8   3   1   1
  0.3954694163073903E-02   8   3   2   1
 -0.1053905695517858E+00   8   3   2   2
  0.9823527457378544E-03   8   3   3   1
  0.1809009791533879E-01   8   3   3   2
 -0.8266025701326725E-01   8   3   3   3
 -0.1083632966344950E-14   8   3   4   1
 -0.1407185999668936E-13   8   3   4   2
  0.2046323180349141E-14   8   3   4   3
 -0.8761213557150484E-01   8   3   4   4
  0.2372848933629513E-03   8   3   5   1
  0.2256288957673679E-01   8   3   5   2
  0.3689167123264795E-02   8   3   5   3
 -0.1042026707975818E-14   8   3   5   4
 -0.1114417082033615E+00   8   3   5   5
 -0.1938837820982853E-02   8   3   6   1
  0.3748358417774698E-01   8   3   6   2
  0.1012011972681964E-01   8   3   6   3
 -0.4104355744161126E-14   8   3   6   4
  0.1105024436989311E-01   8   3   6   5
 -0.1636443539675908E-01   8   3   6   6
  0.1362652395434094E-14   8   3   7   1
 -0.3569193551822281E-15   8   3   7   2
 -0.2884845140549430E-13   8   3   7   3
  0.3713918073474866E-01   8   3   7   4
 -0.9197503869629031E-14   8   3   7   5
 -0.2527145159803013E-13   8   3   7   6
 -0.3721854988175471E-01   8   3   7   7
 -0.7121622224345407E-03   8   3   8   1
  0.5622242574467376E-04   8   3   8   2
  0.6296301009200830E-01   8   3   8   3
 -0.1411115327789002E-12   8   4   1   1
  0.2486885133248600E-14   8   4   2   1
 -0.6267374593623023E-13   8   4   2   2
 -0.8609488515447412E-15   8   4   3   1
 -0.1473479541505562E-13   8   4   3   2
 -0.5310583472745846E-13   8   4   3   3
 -0.1358824823719755E-02   8   4   4   1
 -0.1944026406281618E-01   8   4   4   2
  0.1171124083964634E-02   8   4   4   3
 -0.4870525827919628E-13   8   4   4   4
  0.1470881712632157E-15   8   4   5   1
  0.1386517040503216E-13   8   4   5   2
 -0.1072310676939001E-14   8   4   5   3
 -0.2009220448157923E-02   8   4   5   4
 -0.6842440450846872E-13   8   4   5   5
 -0.1156486799533884E-14   8   4   6   1
  0.2328107324978124E-13   8   4   6   2
 -0.5866834795753562E-14   8   4   6   3
 -0.8874213541167724E-02   8   4   6   4
  0.6485507660428103E-14   8   4   6   5
 -0.1032478149815523E-13   8   4   6   6
  0.1033250130361783E-02   8   4   7   1
  0.7111930641278200E-03   8   4   7   2
  0.1285851014245636E-01   8   4   7   3
  0.3319024742542975E-13   8   4   7   4
 -0.6627861366410257E-02   8   4   7   5
 -0.1984902798763829E-01   8   4   7   6
 -0.1977808489240760E-13   8   4   7   7
  0.1286655514145475E-14   8   4   8   1
  0.1080895355859424E-14   8   4   8   2
  0.3073626422822606E-13   8   4   8   3
  0.1360682850680982E-01   8   4   8   4
 -0.3117619665777687E-02   8   5   1   1
 -0.9714413289962145E-04   8   5   2   1
 -0.2981446899819771E-02   8   5   2   2
  0.4181879259613511E-02   8   5   3   1
  0.2672672049010915E-01   8   5   3   2
  0.7771989504199963E-02   8   5   3   3
  0.2562278900608995E-14   8   5   4   1
  0.1589586752157035E-13   8   5   4   2
 -0.3979672494325293E-14   8   5   4   3
 -0.9562529487764823E-02   8   5   4   4
 -0.1387986536675093E-03   8   5   5   1
  0.8440672561185948E-04   8   5   5   2
 -0.1214356140625599E-01   8   5   5   3
 -0.7965931516848435E-14   8   5   5   4
 -0.1515562454914187E-02   8   5   5   5
  0.1024584540693026E-03   8   5   6   1
  0.8786566450122866E-03   8   5   6   2
  0.6229862288457011E-02   8   5   6   3
  0.2690556111240028E-14   8   5   6   4
  0.1614450411016624E-03   8   5   6   5
 -0.1070238213227821E-02   8   5   6   6
 -0.8805754519655706E-17   8   5   7   1
 -0.4445228907190568E-16   8   5   7   2
 -0.8985000243821872E-14   8   5   7   3
 -0.7587611036084236E-02   8   5   7   4
 -0.6570265165262157E-16   8   5   7   5
 -0.1313185671314443E-14   8   5   7   6
 -0.8153168756026740E-02   8   5   7   7
 -0.2993372057800596E-02   8   5   8   1
 -0.7128424260844229E-02   8   5   8   2
  0.7008958578229097E-02   8   5   8   3
 -0.8204374679632309E-14   8   5   8   4
  0.1630437575414457E-01   8   5   8   5
  0.1042982064805430E-02   8   6   1   1
 -0.1346249279600200E-03   8   6   2   1
 -0.1118153305852187E-02   8   6   2   2
  0.5555969424016770E-02   8   6   3   1
  0.5318658742202237E-01   8   6   3   2
  0.2683824326547127E-01   8   6   3   3
  0.3350188101111998E-14   8   6   4   1
  0.3036763548958099E-13   8   6   4   2
 -0.1280995708813348E-13   8   6   4   3
 -0.2492427513985840E-01   8   6   4   4
  0.1773871605412524E-03   8   6   5   1
  0.7634492268606534E-03   8   6   5   2
  0.6907585950221446E-02   8   6   5   3
  0.3099950851570554E-14   8   6   5   4
  0.9517097788819709E-03   8   6   5   5
  0.6892436724001068E-04   8   6   6   1
 -0.7157338438985470E-04   8   6   6   2
  0.2478803116928029E-01   8   6   6   3
  0.1146392009099273E-13   8   6   6   4
 -0.1918375695457971E-03   8   6   6   5
 -0.7602026884264250E-03   8   6   6   6
  0.2303929616531697E-16   8   6   7   1
 -0.6505213034913027E-17   8   6   7   2
 -0.2533910581359322E-13   8   6   7   3
 -0.2387049710084824E-01   8   6   7   4
 -0.1294320553513195E-14   8   6   7   5
 -0.6081940506774686E-14   8   6   7   6
 -0.3985881999256929E-01   8   6   7   7
 -0.3770590689498147E-02   8   6   8   1
  0.1926969055370587E-02   8   6   8   2
  0.2029791624209901E-01   8   6   8   3
 -0.2492277217935879E-13   8   6   8   4
  0.1640377526367735E-01   8   6   8   5
  0.6503627025930590E-01   8   6   8   6
  0.5107847581841937E-14   8   7   1   1
  0.1987562810732216E-16   8   7   2   1
  0.5152027545296937E-14   8   7   2   2
 -0.7655720946509598E-15   8   7   3   1
 -0.2633482353627675E-13   8   7   3   2
 -0.2084237510980868E-13   8   7   3   3
 -0.1917382162438940E-03   8   7   4   1
 -0.1934373412357325E-01   8   7   4   2
  0.1925189135910189E-01   8   7   4   3
  0.2965697948581906E-13   8   7   4   4
 -0.4472979824124987E-16   8   7   5   1
 -0.8916512547838679E-15   8   7   5   2
 -0.7976423290449600E-14   8   7   5   3
 -0.5949892449599025E-02   8   7   5   4
  0.3707628267130521E-14   8   7   5   5
  0.8870976056594287E-17   8   7   6   1
 -0.1294862654599438E-14   8   7   6   2
 -0.2333647598079525E-13   8   7   6   3
 -0.1840396829516399E-01   8   7   6   4
 -0.7548215524844082E-15   8   7   6   5
 -0.1053476476487119E-14   8   7   6   6
 -0.5344447482069247E-06   8   7   7   1
 -0.1026651876762861E-01   8   7   7   2
  0.1070501832879331E-01   8   7   7   3
  0.8375244942016025E-14   8   7   7   4
 -0.6805062835226715E-02   8   7   7   5
 -0.3770925068314168E-01   8   7   7   6
  0.6479534864923022E-14   8   7   7   7
  0.3637944569172952E-15   8   7   8   1
 -0.1686704161757424E-13   8   7   8   2
 -0.7603401415423594E-14   8   7   8   3
  0.9486751635455209E-02   8   7   8   4
 -0.1400588629449362E-13   8   7   8   5
 -0.7158813472574188E-13   8   7   8   6
  0.2963287699417958E-01   8   7   8   7
  0.4455979562211239E+00   8   8   1   1
 -0.2585761322767499E-02   8   8   2   1
  0.3693399902532749E+00   8   8   2   2
  0.5280348155204534E-03   8   8   3   1
  0.2138667822181937E-01   8   8   3   2
  0.3796920201417208E+00   8   8   3   3
 -0.2181685821583956E-15   8   8   4   1
 -0.2251714439904795E-13   8   8   4   2
  0.2362953582801808E-13   8   8   4   3
  0.3391872598329767E+00   8   8   4   4
  0.1046125508299531E-02   8   8   5   1
  0.2336955569913032E-02   8   8   5   2
  0.6451994607425302E-02   8   8   5   3
 -0.6850423006632411E-14   8   8   5   4
  0.3498119872735648E+00   8   8   5   5
  0.1056551514025197E-02   8   8   6   1
 -0.2371226672567028E-01   8   8   6   2
  0.1930731321475977E-01   8   8   6   3
 -0.2242650509742816E-13   8   8   6   4
 -0.1448339054903484E-02   8   8   6   5
  0.2938704836599846E+00   8   8   6   6
  0.1672923952145133E-15   8   8   7   1
 -0.1718590547650223E-13   8   8   7   2
  0.2171179902532572E-13   8   8   7   3
 -0.3571103993528182E-01   8   8   7   4
 -0.1238419089499843E-13   8   8   7   5
 -0.6830647159006276E-13   8   8   7   6
  0.2761121125074672E+00   8   8   7   7
 -0.2748808721618082E-03   8   8   8   1
  0.9185766208079982E-02   8   8   8   2
 -0.1519834797084965E-01   8   8   8   3
 -0.1035976859853349E-13   8   8   8   4
  0.7568543055628691E-02   8   8   8   5
  0.4049575937369909E-01   8   8   8   6
 -0.7494005416219807E-15   8   8   8   7
  0.3335516929333611E+00   8   8   8   8
  0.3824887687849873E-14   9   1   1   1
 -0.6026997291134562E-15   9   1   2   1
 -0.6400869260909180E-16   9   1   2   2
  0.6271720462068498E-15   9   1   3   1
  0.6874942916389529E-15   9   1   3   2
  0.5487951862246347E-16   9   1   3   3
 -0.9410223861305489E-02   9   1   4   1
 -0.9947109713515454E-02   9   1   4   2
  0.1543248714306657E-02   9   1   4   3
  0.1904504819719227E-16   9   1   4   4
 -0.2064298437099739E-15   9   1   5   1
 -0.3471886406841707E-15   9   1   5   2
 -0.1371158935565132E-15   9   1   5   3
  0.1839473906700258E-02   9   1   5   4
  0.3130428713040010E-15   9   1   5   5
  0.5855543396580409E-15   9   1   6   1
  0.2252972114424878E-15   9   1   6   2
 -0.1380189365574047E-15   9   1   6   3
  0.2730838473382267E-02   9   1   6   4
  0.2218548695448463E-16   9   1   6   5
 -0.2955322615227869E-15   9   1   6   6
  0.6681896282572662E-02   9   1   7   1
  0.4980133729237004E-02   9   1   7   2
  0.9176231482362561E-03   9   1   7   3
 -0.5481726184086710E-15   9   1   7   4
 -0.2220144329174647E-02   9   1   7   5
 -0.3083855484473159E-02   9   1   7   6
  0.4553530291047683E-16   9   1   7   7
  0.3644865602593073E-14   9   1   8   1
  0.2722106394459356E-14   9   1   8   2
  0.4765881699703156E-15   9   1   8   3
  0.5929888440190166E-03   9   1   8   4
 -0.1202759680046794E-14   9   1   8   5
 -0.1674069140689821E-14   9   1   8   6
  0.1801900426356305E-03   9   1   8   7
  0.2525084218868008E-15   9   1   8   8
  0.6178004368363239E-02   9   1   9   1
 -0.4558964591959724E-14   9   2   1   1
  0.1050896836999465E-15   9   2   2   1
 -0.1658268729222833E-14   9   2   2   2
  0.3202280054895399E-15   9   2   3   1
  0.1471899316839165E-14   9   2   3   2
 -0.1384475350861025E-14   9   2   3   3
 -0.4642146590173140E-02   9   2   4   1
 -0.2603325640562428E-01   9   2   4   2
  0.2400927112912840E-01   9   2   4   3
 -0.8296750000168439E-15   9   2   4   4
 -0.2433815766246039E-15   9   2   5   1
 -0.1676718659748833E-15   9   2   5   2
  0.4586708820370454E-15   9   2   5   3
 -0.9190946320018495E-02   9   2   5   4
 -0.1046428698809356E-14   9   2   5   5
  0.9011731756604271E-16   9   2   6   1
  0.6797947621484113E-15   9   2   6   2
 -0.2259477327459791E-15   9   2   6   3
  0.2393774863403295E-02   9   2   6   4
  0.3387589687930959E-15   9   2   6   5
 -0.1114159153807275E-14   9   2   6   6
  0.3095960808969048E-02   9   2   7   1
 -0.1805973410438234E-02   9   2   7   2
  0.1999895693935889E-03   9   2   7   3
  0.1403391292065237E-14   9   2   7   4
 -0.3703666642798781E-03   9   2   7   5