 &FCI NORB= 27,NELEC= 22,MS2= 0,
  ORBSYM=1,1,1,1,1,1,1,1,1,1,1,1,1,1,1,1,1,1,1,1,1,1,1,1,1,1,1,
  ISYM=0,
 /
  0.2479528427514934E+01   1   1   1   1
  0.1544861320248087E-07   2   1   1   1
  0.2260136241059659E+01   2   1   2   1
  0.2479655762176139E+01   2   2   1   1
 -0.1544774411332990E-07   2   2   2   1
  0.2479783108672362E+01   2   2   2   2
 -0.7665040850671967E-11   3   1   1   1
 -0.7585448145008080E-03   3   1   2   1
  0.2704161491601599E-11   3   1   2   2
  0.3613963587639602E-06   3   1   3   1
 -0.7257613539183585E-03   3   2   1   1
  0.2592117519386695E-11   3   2   2   1
 -0.7258211270858201E-03   3   2   2   2
  0.1624639311513827E-15   3   2   3   1
  0.4089151467391119E-06   3   2   3   2
  0.4390410405179000E+00   3   3   1   1
 -0.3370983183483564E-14   3   3   2   1
  0.4390400502306746E+00   3   3   2   2
  0.1329972576627185E-11   3   3   3   1
  0.3891294577772393E-03   3   3   3   2
  0.3505306368565954E+01   3   3   3   3
 -0.1980073005055069E-08   4   1   1   1
 -0.1933584219798464E+00   4   1   2   1
  0.6631028761888224E-09   4   1   2   2
  0.9249842365225481E-04   4   1   3   1
  0.1504486368385932E-14   4   1   3   2
  0.1167437719860372E-10   4   1   3   3
  0.2642494759411560E-01   4   1   4   1
 -0.1925353101061839E+00   4   2   1   1
  0.6602881471459215E-09   4   2   2   1
 -0.1925525666860664E+00   4   2   2   2
  0.1503789948484612E-14   4   2   3   1
  0.9287282205791894E-04   4   2   3   2
  0.3413937310696261E-02   4   2   3   3
  0.1618736239071984E-12   4   2   4   1
  0.2643556925022950E-01   4   2   4   2
  0.9180717492678199E-03   4   3   1   1
  0.2217922343700726E-13   4   3   2   1
  0.9180705663214330E-03   4   3   2   2
 -0.9301071153550481E-13   4   3   3   1
 -0.2721378225217789E-04   4   3   3   2
 -0.2236731736688320E+00   4   3   3   3
 -0.2440317167632690E-14   4   3   4   1
 -0.7970325624888374E-06   4   3   4   2
  0.2242391158184448E-01   4   3   4   3
  0.6178978301483786E+00   4   4   1   1
  0.1677225348081617E-11   4   4   2   1
  0.6178995585481936E+00   4   4   2   2
  0.6597954089972749E-13   4   4   3   1
  0.1935056774665155E-04   4   4   3   2
  0.6279412789403511E+00   4   4   3   3
 -0.8551029161011151E-11   4   4   4   1
 -0.2494770508379388E-02   4   4   4   2
 -0.3442838824289189E-02   4   4   4   3
  0.5435500793093161E+00   4   4   4   4
 -0.2090130501141349E+00   5   1   1   1
 -0.7169160002111283E-09   5   1   2   1
 -0.2090317174569593E+00   5   1   2   2
  0.6809717371132222E-12   5   1   3   1
  0.9983023469670540E-04   5   1   3   2
  0.3371875137911879E-02   5   1   3   3
  0.1952503877301155E-09   5   1   4   1
  0.2856784356329184E-01   5   1   4   2
 -0.5935215478881798E-05   5   1   4   3
 -0.3064764705756448E-02   5   1   4   4
  0.3088820780774117E-01   5   1   5   1
 -0.7198235449007511E-09   5   2   1   1
 -0.2098819349378570E+00   5   2   2   1
  0.2149353744208364E-08   5   2   2   2
  0.9948632309840109E-04   5   2   3   1
 -0.6813709275152883E-12   5   2   3   2
 -0.1153164990496765E-10   5   2   3   3
  0.2856135749336387E-01   5   2   4   1
 -0.1952314527592011E-09   5   2   4   2
  0.2058759848799810E-13   5   2   4   3
  0.1045830101048586E-10   5   2   4   4
 -0.1317699340483772E-12   5   2   5   1
  0.3088659390952419E-01   5   2   5   2
  0.6804433683970576E-10   5   3   1   1
  0.9955481724760174E-02   5   3   2   1
 -0.6804839779301370E-10   5   3   2   2
  0.1814302873252412E-05   5   3   3   1
 -0.6143827940053139E-14   5   3   3   2
  0.4987485783916977E-12   5   3   3   3
  0.1330129704755421E-03   5   3   4   1
 -0.4542844397574931E-12   5   3   4   2
 -0.3548959522899151E-13   5   3   4   3
  0.6763368077650821E-13   5   3   4   4
  0.4643313008327837E-12   5   3   5   1
  0.1359576378540455E-03   5   3   5   2
  0.6538336916700244E-02   5   3   5   3
  0.2591221653333612E-08   5   4   1   1
  0.3790958882641320E+00   5   4   2   1
 -0.2591068576583630E-08   5   4   2   2
 -0.3579046973888764E-04   5   4   3   1
  0.1222882512602190E-12   5   4   3   2
 -0.8998558947715639E-13   5   4   3   3
 -0.4108244056484894E-02   5   4   4   1
  0.1402754185053125E-10   5   4   4   2
  0.3518442810457887E-13   5   4   4   3
  0.1088370503134848E-11   5   4   4   4
 -0.1592084217282366E-10   5   4   5   1
 -0.4660421421279867E-02   5   4   5   2
  0.1359217919736331E-01   5   4   5   3
  0.2440473780882856E+00   5   4   5   4
  0.6546170403744374E+00   5   5   1   1
 -0.1668068256153901E-11   5   5   2   1
  0.6546192616359864E+00   5   5   2   2
  0.3368363681154621E-13   5   5   3   1
  0.9809085261366998E-05   5   5   3   2
  0.5908533534178643E+00   5   5   3   3
 -0.1166981340391688E-10   5   5   4   1
 -0.3417224377009330E-02   5   5   4   2
 -0.1228667679215409E-02   5   5   4   3
  0.5513523182635227E+00   5   5   4   4
 -0.4067678951119806E-02   5   5   5   1
  0.1392863811620773E-10   5   5   5   2
 -0.5786000747531189E-13   5   5   5   3
 -0.1057143955707218E-11   5   5   5   4
  0.5648267464106985E+00   5   5   5   5
 -0.1313240924469284E-08   6   1   1   1
 -0.1273967854188773E+00   6   1   2   1
  0.4282566927366102E-09   6   1   2   2
  0.3568724239671652E-04   6   1   3   1
 -0.2822160784925231E-14   6   1   3   2
 -0.2752478491376646E-10   6   1   3   3
  0.1404356001615207E-01   6   1   4   1
  0.1069026730202496E-14   6   1   4   2
 -0.1785496192022831E-12   6   1   4   3
 -0.4205578514108214E-10   6   1   4   4
  0.1065727493945311E-09   6   1   5   1
  0.1560231333591016E-01   6   1   5   2
 -0.3747973635480419E-03   6   1   5   3
 -0.9899573115461975E-02   6   1   5   4
 -0.4468850707026424E-10   6   1   5   5
  0.1868372444229564E-01   6   1   6   1
 -0.1294307393342999E+00   6   2   1   1
  0.4352115859269561E-09   6   2   2   1
 -0.1294404076680101E+00   6   2   2   2
 -0.2820730781552029E-14   6   2   3   1
  0.3485643241067783E-04   6   2   3   2
 -0.8049462665176475E-02   6   2   3   3
  0.1064412094705855E-14   6   2   4   1
  0.1402999371216645E-01   6   2   4   2
 -0.5197573375922407E-04   6   2   4   3
 -0.1228725561023509E-01   6   2   4   4
  0.1558640746882053E-01   6   2   5   1
 -0.1066041298307039E-09   6   2   5   2
  0.1280272171046342E-11   6   2   5   3
  0.3381542843048507E-10   6   2   5   4
 -0.1308307607911663E-01   6   2   5   5
  0.1887542026298523E-12   6   2   6   1
  0.1872343703100542E-01   6   2   6   2
 -0.1373592241254265E-03   6   3   1   1
 -0.1617759920309616E-13   6   3   2   1
 -0.1373515235288132E-03   6   3   2   2
  0.8862846741262820E-13   6   3   3   1
  0.2593135192536830E-04   6   3   3   2
  0.2115007559027157E+00   6   3   3   3
 -0.2588408850592253E-13   6   3   4   1
 -0.7498660885284066E-05   6   3   4   2
 -0.2144033050111016E-01   6   3   4   3
  0.3468916136485440E-02   6   3   4   4
 -0.4645635629549732E-05   6   3   5   1
  0.1563846818494340E-13   6   3   5   2
  0.3570693350710336E-13   6   3   5   3
 -0.2741818545207858E-13   6   3   5   4
  0.1527815239192089E-02   6   3   5   5
  0.1157534325179753E-13   6   3   6   1
  0.3213992148180540E-05   6   3   6   2
  0.2051799678505432E-01   6   3   6   3
  0.5874746731596449E-01   6   4   1   1
  0.3292498406551390E-12   6   4   2   1
  0.5875009116131297E-01   6   4   2   2
 -0.2257764654369014E-12   6   4   3   1
 -0.6600933809765627E-04   6   4   3   2
 -0.1978497239421320E+00   6   4   3   3
 -0.1946620276538531E-10   6   4   4   1
 -0.5686213073905268E-02   6   4   4   2
  0.3834152310960064E-02   6   4   4   3
 -0.4829007409791026E-01   6   4   4   4
 -0.5855589546506839E-02   6   4   5   1
  0.2000339739634044E-10   6   4   5   2
 -0.2761432016618005E-13   6   4   5   3
  0.4039758978724439E-13   6   4   5   4
 -0.3831097302143474E-01   6   4   5   5
  0.1756778070591139E-10   6   4   6   1
  0.5130803739334791E-02   6   4   6   2
 -0.3436296138638635E-02   6   4   6   3
  0.6453265179384059E-01   6   4   6   4
  0.8322766730981256E-09   6   5   1   1
  0.1217813417003694E+00   6   5   2   1
 -0.8324901656944049E-09   6   5   2   2
 -0.5155145714444481E-04   6   5   3   1
  0.1762102167723627E-12   6   5   3   2
  0.1255868457876862E-12   6   5   3   3
 -0.5941721545350043E-02   6   5   4   1
  0.2029585458300943E-10   6   5   4   2
 -0.1405686798997899E-13   6   5   4   3
  0.1022854639593048E-12   6   5   4   4
 -0.2105108370403113E-10   6   5   5   1
 -0.6164721893465248E-02   6   5   5   2
 -0.3885170448911310E-02   6   5   5   3
  0.2639938235831905E-01   6   5   5   4
 -0.1425690829889545E-12   6   5   5   5
  0.4687829049230669E-02   6   5   6   1
 -0.1600749550002400E-10   6   5   6   2
  0.1163640675693760E-13   6   5   6   3
  0.1566086737831048E-12   6   5   6   4
  0.5297906963880738E-01   6   5   6   5
  0.5951831259159578E+00   6   6   1   1
  0.1197919129004659E-11   6   6   2   1
  0.5951872947641438E+00   6   6   2   2
 -0.1519611261860230E-12   6   6   3   1
 -0.4438916236376238E-04   6   6   3   2
  0.5036751813652313E+00   6   6   3   3
 -0.2610251191624904E-10   6   6   4   1
 -0.7625236778906128E-02   6   6   4   2
 -0.3445833271790100E-02   6   6   4   3
  0.4520727533440473E+00   6   6   4   4
 -0.7964915241512299E-02   6   6   5   1
  0.2721108855954649E-10   6   6   5   2
  0.3708779160518927E-13   6   6   5   3
  0.6365576468714274E-12   6   6   5   4
  0.4616229506267234E+00   6   6   5   5
  0.1059350972557310E-10   6   6   6   1
  0.3092592699050226E-02   6   6   6   2
  0.3265284080920933E-02   6   6   6   3
  0.1660936146878584E-01   6   6   6   4
  0.2250954414181883E-12   6   6   6   5
  0.4836742562599023E+00   6   6   6   6
 -0.9646037137359748E-01   7   1   1   1
 -0.3212647768148405E-09   7   1   2   1
 -0.9646684635616744E-01   7   1   2   2
  0.1113148015739274E-12   7   1   3   1
  0.1578821318271156E-04   7   1   3   2
 -0.9784602657924579E-02   7   1   3   3
  0.6190542976714365E-10   7   1   4   1
  0.9047860747350412E-02   7   1   4   2
 -0.5330127552898500E-04   7   1   4   3
 -0.1306160277727583E-01   7   1   4   4
  0.1024992201300732E-01   7   1   5   1
  0.2397962132138186E-13   7   1   5   2
 -0.1556692786798039E-11   7   1   5   3
 -0.3446308987969590E-10   7   1   5   4
 -0.1372716621487290E-01   7   1   5   5
  0.1183711558659710E-09   7   1   6   1
  0.1734128595552998E-01   7   1   6   2
  0.1310272057147236E-05   7   1   6   3
  0.7069793168725293E-02   7   1   6   4
  0.2278598838746041E-10   7   1   6   5
  0.5257319545407656E-02   7   1   6   6
  0.1703948658774559E-01   7   1   7   1
 -0.3130309273698159E-09   7   2   1   1
 -0.9405852892670916E-01   7   2   2   1
  0.9727835720664827E-09   7   2   2   2
  0.1680145293508661E-04   7   2   3   1
 -0.1114360457905880E-12   7   2   3   2
  0.3345265261414852E-10   7   2   3   3
  0.9066115046363836E-02   7   2   4   1
 -0.6190471467143639E-10   7   2   4   2
  0.1812271587994040E-12   7   2   4   3
  0.4461462415612853E-10   7   2   4   4
  0.2396566899467469E-13   7   2   5   1
  0.1026989367651331E-01   7   2   5   2
 -0.4557182419999125E-03   7   2   5   3
 -0.1008877604404855E-01   7   2   5   4
  0.4698033802511664E-10   7   2   5   5
  0.1729637555076419E-01   7   2   6   1
 -0.1183796720453370E-09   7   2   6   2
 -0.3758282050298448E-14   7   2   6   3
 -0.2414064953525693E-10   7   2   6   4
  0.6669097961900535E-02   7   2   6   5
 -0.1794869494176569E-10   7   2   6   6
 -0.2334635543427884E-12   7   2   7   1
  0.1698779214518705E-01   7   2   7   2
 -0.6647838748364594E-10   7   3   1   1
 -0.9726115296614062E-02   7   3   2   1
  0.6647887767624886E-10   7   3   2   2
 -0.1968016135807495E-05   7   3   3   1
  0.6690548959057176E-14   7   3   3   2
 -0.3251863188166501E-12   7   3   3   3
 -0.1496458001564750E-03   7   3   4   1
  0.5111034437406295E-12   7   3   4   2
  0.1667119976511428E-13   7   3   4   3
 -0.6664274205447484E-13   7   3   4   4
 -0.5286531998429213E-12   7   3   5   1
 -0.1547964145165911E-03   7   3   5   2
 -0.7337603214611343E-02   7   3   5   3
 -0.1391195405356978E-01   7   3   5   4
  0.5975833197635875E-13   7   3   5   5
  0.3544154916600099E-03   7   3   6   1
 -0.1210540650908181E-11   7   3   6   2
 -0.1793287402440524E-13   7   3   6   3
  0.2559682066999303E-13   7   3   6   4
  0.4196999763048063E-02   7   3   6   5
 -0.3533240478881380E-13   7   3   6   6
  0.1494486421077458E-11   7   3   7   1
  0.4374746316326195E-03   7   3   7   2
  0.8251186954224129E-02   7   3   7   3
  0.2755118782250908E-09   7   4   1   1
  0.4031609825946830E-01   7   4   2   1
 -0.2756144601000324E-09   7   4   2   2
 -0.4263010119605285E-04   7   4   3   1
  0.1456403607262897E-12   7   4   3   2
 -0.1111132986221829E-12   7   4   3   3
 -0.4848378377423556E-02   7   4   4   1
  0.1655503456319911E-10   7   4   4   2
 -0.1541479558269374E-13   7   4   4   3
 -0.1756983879471284E-12   7   4   4   4
 -0.1687459960785930E-10   7   4   5   1
 -0.4939864976491150E-02   7   4   5   2
 -0.6183768311570759E-02   7   4   5   3
 -0.2127758265453824E-01   7   4   5   4
  0.1046386833653251E-13   7   4   5   5
  0.6761645858606346E-02   7   4   6   1
 -0.2308439946866554E-10   7   4   6   2
  0.1210320237900471E-13   7   4   6   3
  0.2259473871565366E-12   7   4   6   4
  0.4609814038295514E-01   7   4   6   5
  0.1155909985083310E-12   7   4   6   6
  0.2981697219959004E-10   7   4   7   1
  0.8724566406891999E-02   7   4   7   2
  0.6528978796459987E-02   7   4   7   3
  0.4880210857180840E-01   7   4   7   4
  0.1718645338787180E-01   7   5   1   1
 -0.2549566841894839E-12   7   5   2   1
  0.1718906092272207E-01   7   5   2   2
 -0.2340132714198973E-12   7   5   3   1
 -0.6852294406827048E-04   7   5   3   2
 -0.1892327852143286E+00   7   5   3   3
 -0.1985893369101923E-10   7   5   4   1
 -0.5813018429786578E-02   7   5   4   2
  0.1897079900910262E-02   7   5   4   3
 -0.7234841118554654E-01   7   5   4   4
 -0.5888112387365113E-02   7   5   5   1
  0.2015679495466797E-10   7   5   5   2
  0.1598791798008026E-13   7   5   5   3
  0.2873894698607327E-13   7   5   5   4
 -0.6797514709163009E-01   7   5   5   5
  0.2801060624071250E-10   7   5   6   1
  0.8197813973091680E-02   7   5   6   2
 -0.1792526517228150E-02   7   5   6   3
  0.6584035158634438E-01   7   5   6   4
 -0.2032243730937244E-12   7   5   6   5
  0.9454944875321112E-02   7   5   6   6
  0.1051406530959836E-01   7   5   7   1
 -0.3597582227137148E-10   7   5   7   2
 -0.1875427337570418E-13   7   5   7   3
 -0.1165920658630082E-12   7   5   7   4
  0.7575784202653632E-01   7   5   7   5
  0.2573270943590928E-08   7   6   1   1
  0.3764762474401812E+00   7   6   2   1
 -0.2573208536630554E-08   7   6   2   2
 -0.8245366924618473E-04   7   6   3   1
  0.2817889437059035E-12   7   6   3   2
  0.4943997022876094E-14   7   6   3   3
 -0.8316928250001986E-02   7   6   4   1
  0.2840619777702731E-10   7   6   4   2
  0.2238985736993226E-13   7   6   4   3
  0.8833445240010519E-12   7   6   4   4
 -0.2938784946730083E-10   7   6   5   1
 -0.8605115196148629E-02   7   6   5   2
  0.9093237686275972E-02   7   6   5   3
  0.1941452914624646E+00   7   6   5   4
 -0.8216838935271266E-12   7   6   5   5
  0.5117223138018358E-02   7   6   6   1
 -0.1747807089759034E-10   7   6   6   2
 -0.1736343257081841E-13   7   6   6   3
  0.2277112417896354E-12   7   6   6   4
  0.7923972164947078E-01   7   6   6   5
  0.8204959367951148E-12   7   6   6   6
  0.2615728129701147E-10   7   6   7   1
  0.7657229299491492E-02   7   6   7   2
 -0.9367895703836398E-02   7   6   7   3
  0.3939673674064599E-01   7   6   7   4
 -0.2172760669300056E-12   7   6   7   5
  0.2568278941465750E+00   7   6   7   6
  0.6227261078070062E+00   7   7   1   1
 -0.1212377861135611E-11   7   7   2   1
  0.6227301833846420E+00   7   7   2   2
 -0.1441200346201057E-12   7   7   3   1
 -0.4224866617920141E-04   7   7   3   2
  0.4953096886474486E+00   7   7   3   3
 -0.2465548952338987E-10   7   7   4   1
 -0.7217585394063079E-02   7   7   4   2
 -0.1874209457559013E-02   7   7   4   3
  0.4661735404491765E+00   7   7   4   4
 -0.7558922918705510E-02   7   7   5   1
  0.2587744707643717E-10   7   7   5   2
 -0.2487270236778069E-13   7   7   5   3
 -0.5965245658545726E-12   7   7   5   4
  0.4810434918181114E+00   7   7   5   5
  0.7096974483783436E-11   7   7   6   1
  0.2079523024854063E-02   7   7   6   2
  0.1941716946702542E-02   7   7   6   3
  0.1797227276142847E-01   7   7   6   4
 -0.2919803071196880E-12   7   7   6   5
  0.4934014040773708E+00   7   7   6   6
  0.4023111119886055E-02   7   7   7   1
 -0.1377760278369229E-10   7   7   7   2
  0.2694287376075978E-13   7   7   7   3
 -0.1476444834447310E-12   7   7   7   4
  0.4018719852780288E-02   7   7   7   5
 -0.8115729632383537E-12   7   7   7   6
  0.5102418250882095E+00   7   7   7   7
  0.7028635284487296E-16   8   1   1   1
  0.9480624850468028E-17   8   1   2   1
  0.7029108247923391E-16   8   1   2   2
 -0.1517634655413701E-19   8   1   3   1
 -0.2358530961053235E-19   8   1   3   2
  0.1823850442509917E-17   8   1   3   3
 -0.2456677697991985E-17   8   1   4   1
 -0.8717262870808176E-17   8   1   4   2
  0.1708246655690807E-19   8   1   4   3
  0.3932747095456065E-17   8   1   4   4
 -0.9589417900748135E-17   8   1   5   1
 -0.1509292980586734E-17   8   1   5   2
  0.2314736425828908E-19   8   1   5   3
 -0.7442075235784021E-18   8   1   5   4
  0.4303096740536904E-17   8   1   5   5
 -0.3529998296623982E-18   8   1   6   1
 -0.6354435761917046E-17   8   1   6   2
  0.5612448770864472E-20   8   1   6   3
  0.5103912873829056E-18   8   1   6   4
  0.3749595580953203E-18   8   1   6   5
  0.1824047395107844E-17   8   1   6   6
 -0.1513565148259327E-17   8   1   7   1
 -0.1219547042740432E-17   8   1   7   2
 -0.4160306384836360E-19   8   1   7   3
 -0.1483138375948340E-17   8   1   7   4
  0.3224366516536211E-17   8   1   7   5
  0.2472033569868291E-18   8   1   7   6
  0.4737831689853122E-17   8   1   7   7
  0.9704787547207966E-02   8   1   8   1
  0.9667637753372632E-17   8   2   1   1
  0.6987951876653615E-16   8   2   2   1
  0.9665862787346941E-17   8   2   2   2
 -0.2376747195400040E-19   8   2   3   1
 -0.1516450683060810E-19   8   2   3   2
  0.7984318101415222E-18   8   2   3   3
 -0.8719925539233530E-17   8   2   4   1
 -0.2458187018678117E-17   8   2   4   2
  0.1502384630797049E-18   8   2   4   3
 -0.9034048919588523E-18   8   2   4   4
 -0.1507536320342344E-17   8   2   5   1
 -0.9593702909403735E-17   8   2   5   2
  0.1090170318530481E-18   8   2   5   3
  0.3558857475744297E-17   8   2   5   4
  0.3900725278387521E-18   8   2   5   5
 -0.6343901701084245E-17   8   2   6   1
 -0.3552916348478335E-18   8   2   6   2
 -0.4792270659746476E-19   8   2   6   3
 -0.9275882581881964E-18   8   2   6   4
  0.7245641670782769E-18   8   2   6   5
  0.1330081927865474E-17   8   2   6   6
 -0.1222716056836633E-17   8   2   7   1
 -0.1495845843769455E-17   8   2   7   2
 -0.2299705951652528E-19   8   2   7   3
  0.3421539504495913E-17   8   2   7   4
 -0.7471071268295403E-18   8   2   7   5
  0.3117307068743689E-17   8   2   7   6
 -0.1401461591192441E-19   8   2   7   7
  0.8169456169898224E-13   8   2   8   1
  0.9724826802930299E-02   8   2   8   2
 -0.2225492422469920E-18   8   3   1   1
  0.8320496592946538E-17   8   3   2   1
 -0.2225993616467243E-18   8   3   2   2
  0.1835128485865368E-20   8   3   3   1
 -0.1883016594596611E-20   8   3   3   2
  0.5511930316174640E-17   8   3   3   3
  0.1332518622488797E-18   8   3   4   1
 -0.2338897571075672E-19   8   3   4   2
  0.6427589433109397E-17   8   3   4   3
  0.5992383381163941E-17   8   3   4   4
 -0.1075199713346677E-20   8   3   5   1
  0.1378254627412435E-18   8   3   5   2
  0.7634497495926117E-17   8   3   5   3
  0.1262444716763951E-16   8   3   5   4
 -0.1383340499228981E-18   8   3   5   5
 -0.2743305145717679E-18   8   3   6   1
  0.2125549221000786E-19   8   3   6   2
 -0.1334786203116527E-17   8   3   6   3
 -0.4015911405943818E-17   8   3   6   4
 -0.3919340536240050E-17   8   3   6   5
  0.1592060714785884E-17   8   3   6   6
 -0.1373738708115439E-20   8   3   7   1
 -0.2703802959294141E-18   8   3   7   2
 -0.6111553460040374E-17   8   3   7   3
 -0.3576016672014316E-17   8   3   7   4
 -0.9643471658674551E-19   8   3   7   5
  0.7017227413127181E-17   8   3   7   6
 -0.4154559810044822E-19   8   3   7   7
  0.7216781489455769E-12   8   3   8   1
  0.2111232513369185E-03   8   3   8   2
  0.7309703282749767E-02   8   3   8   3
 -0.1585562580755903E-16   8   4   1   1
 -0.6132086419123066E-16   8   4   2   1
 -0.1585856162743948E-16   8   4   2   2
  0.2578082334092705E-19   8   4   3   1
  0.7722570650593869E-20   8   4   3   2
  0.1134638328890326E-15   8   4   3   3
  0.2721695591946201E-17   8   4   4   1
 -0.1202588059596748E-18   8   4   4   2
  0.3940680360971507E-17   8   4   4   3
  0.3243513351318565E-16   8   4   4   4
  0.9852573026782469E-18   8   4   5   1
  0.2832356969511347E-17   8   4   5   2
  0.3669807491730251E-17   8   4   5   3
 -0.8821701611635692E-17   8   4   5   4
  0.1626332253297923E-16   8   4   5   5
  0.5746617455414440E-18   8   4   6   1
  0.6147793726418924E-19   8   4   6   2
  0.9821459602953235E-19   8   4   6   3
 -0.3636255274057236E-16   8   4   6   4
 -0.1957639992397119E-16   8   4   6   5
  0.1694451127159876E-16   8   4   6   6
 -0.1323110829607681E-17   8   4   7   1
  0.3407549456924792E-17   8   4   7   2
 -0.1514064952915223E-17   8   4   7   3
  0.6167877394927874E-17   8   4   7   4
 -0.2278659790319794E-16   8   4   7   5
 -0.2280506979411787E-16   8   4   7   6
  0.5497582738458040E-17   8   4   7   7
  0.3366030144771968E-10   8   4   8   1
  0.9839267791318912E-02   8   4   8   2
  0.7136090075054495E-02   8   4   8   3
  0.6593622032455788E-01   8   4   8   4
 -0.4687438589304340E-16   8   5   1   1
 -0.1562140246226349E-16   8   5   2   1
 -0.4687683395611977E-16   8   5   2   2
 -0.7811748428107039E-20   8   5   3   1
  0.4212276974416700E-19   8   5   3   2
  0.1272122060690452E-15   8   5   3   3
 -0.8492100059799299E-18   8   5   4   1
  0.3250648711879233E-17   8   5   4   2
 -0.2097874834976264E-17   8   5   4   3
  0.2326907124311933E-16   8   5   4   4
  0.3352629528886643E-17   8   5   5   1
  0.2401265721401518E-18   8   5   5   2
 -0.3916351646901608E-19   8   5   5   3
 -0.9149998594986005E-17   8   5   5   4
  0.1882082808845540E-16   8   5   5   5
  0.7731070938065650E-18   8   5   6   1
 -0.5180379878427935E-19   8   5   6   2
  0.1899268102715046E-17   8   5   6   3
 -0.3153692941341708E-16   8   5   6   4
 -0.1251129585298686E-17   8   5   6   5
 -0.2640077243076635E-17   8   5   6   6
  0.2592077083969793E-17   8   5   7   1
 -0.3686410042103586E-18   8   5   7   2
 -0.5060131680270692E-19   8   5   7   3
 -0.9287553366516207E-17   8   5   7   4
 -0.1509039715418095E-16   8   5   7   5
 -0.6100426148734829E-17   8   5   7   6
  0.3661321945604394E-17   8   5   7   7
  0.9806125021683433E-02   8   5   8   1
 -0.3352114267332471E-10   8   5   8   2
 -0.1403331428011690E-13   8   5   8   3
  0.2409444171957986E-13   8   5   8   4
  0.4925036097552755E-01   8   5   8   5
  0.2754982928847117E-17   8   6   1   1
 -0.1095756100504066E-15   8   6   2   1
  0.2753501527404812E-17   8   6   2   2
  0.2562290997232484E-19   8   6   3   1
 -0.5837455102006935E-20   8   6   3   2
 -0.1647129505406643E-16   8   6   3   3
  0.2622342521665706E-17   8   6   4   1
 -0.5178282173431578E-18   8   6   4   2
 -0.3743793990217071E-17   8   6   4   3
 -0.1569129297786219E-16   8   6   4   4
  0.5732830618989057E-19   8   6   5   1
  0.2672709746031853E-17   8   6   5   2
 -0.4751435299779480E-17   8   6   5   3
 -0.6303986587437245E-16   8   6   5   4
  0.8349153987536605E-18   8   6   5   5
 -0.1189669181259957E-17   8   6   6   1
  0.2778418249856016E-19   8   6   6   2
  0.6708652321321859E-18   8   6   6   3
  0.6914618698349290E-17   8   6   6   4
 -0.1964013741170451E-16   8   6   6   5
 -0.9483578585294302E-18   8   6   6   6
 -0.5931555786098432E-18   8   6   7   1
 -0.1959712911589442E-18   8   6   7   2
  0.3381228582834697E-17   8   6   7   3
 -0.6647085833970305E-17   8   6   7   4
  0.7293103856149358E-19   8   6   7   5
 -0.6707545338494779E-16   8   6   7   6
 -0.2190294973047808E-17   8   6   7   7
  0.1706676404136776E-10   8   6   8   1
  0.4990009308556605E-02   8   6   8   2
 -0.4801955089008392E-02   8   6   8   3
  0.4822208997293763E-03   8   6   8   4
  0.3244721657157112E-13   8   6   8   5
  0.2861845790370894E-01   8   6   8   6
 -0.1757261441486621E-17   8   7   1   1
 -0.2395496810138995E-16   8   7   2   1
 -0.1758370097605584E-17   8   7   2   2
  0.7744370932984620E-21   8   7   3   1
  0.9771214869858062E-21   8   7   3   2
 -0.5319261187809592E-16   8   7   3   3
  0.2189278106743124E-19   8   7   4   1
  0.1114757549517065E-17   8   7   4   2
  0.1575027100165238E-17   8   7   4   3
 -0.3341448024346461E-17   8   7   4   4
  0.1060115272638009E-17   8   7   5   1
  0.5109317949294209E-18   8   7   5   2
 -0.3322722431988358E-18   8   7   5   3
 -0.1509082715879064E-16   8   7   5   4
 -0.5014024201205169E-17   8   7   5   5
 -0.4969364614635608E-19   8   7   6   1
 -0.2180724202095167E-17   8   7   6   2
 -0.1461048066714544E-17   8   7   6   3
 -0.4147785600420562E-18   8   7   6   4
 -0.4564032161212505E-17   8   7   6   5
 -0.1927917563930155E-16   8   7   6   6
 -0.1302716471647066E-17   8   7   7   1
 -0.6672105945458903E-18   8   7   7   2
  0.2889613130979446E-18   8   7   7   3
 -0.4830432714183186E-17   8   7   7   4
  0.2476421602397932E-17   8   7   7   5
 -0.1441445731908077E-16   8   7   7   6
 -0.8947597879201350E-17   8   7   7   7
  0.3979805015495558E-02   8   7   8   1
 -0.1360334814849296E-10   8   7   8   2
  0.7001714631835936E-14   8   7   8   3
  0.3210587394053067E-13   8   7   8   4
  0.8093008454283672E-02   8   7   8   5
  0.1066938878690809E-13   8   7   8   6
  0.1925993755940464E-01   8   7   8   7
  0.5469977179454195E+00   8   8   1   1
  0.3799613618529762E-12   8   8   2   1
  0.5469987551333025E+00   8   8   2   2
 -0.1742862933204329E-15   8   8   3   1
 -0.3407252760753628E-07   8   8   3   2
  0.5514830923308667E+00   8   8   3   3
 -0.7026079547269200E-11   8   8   4   1
 -0.2052982255869126E-02   8   8   4   2
 -0.2006618851759803E-02   8   8   4   3
  0.4799770069520850E+00   8   8   4   4
 -0.2355353996959804E-02   8   8   5   1
  0.8048781767759552E-11   8   8   5   2
  0.1199305818501070E-13   8   8   5   3
  0.2149148914387666E-12   8   8   5   4
  0.4826481569679520E+00   8   8   5   5
 -0.1742190437325087E-10   8   8   6   1
 -0.5094763177991464E-02   8   8   6   2
  0.1813218604854970E-02   8   8   6   3
 -0.2763049879864535E-01   8   8   6   4
  0.5532087374998662E-13   8   8   6   5
  0.4272475404401327E+00   8   8   6   6
 -0.5181964897542642E-02   8   8   7   1
  0.1771636835715476E-10   8   8   7   2
 -0.1028527882708605E-13   8   8   7   3
 -0.2411569208216058E-13   8   8   7   4
 -0.3920210726168546E-01   8   8   7   5
  0.2137760183717335E-12   8   8   7   6
  0.4313486452486870E+00   8   8   7   7
 -0.3977651705097205E-17   8   8   8   1
 -0.1638667096842558E-20   8   8   8   2
 -0.1869081433255584E-18   8   8   8   3
  0.1990766036026761E-16   8   8   8   4
 -0.2833162657056252E-18   8   8   8   5
  0.6228448621090188E-18   8   8   8   6
 -0.1411647549968298E-16   8   8   8   7
  0.4606379023246521E+00   8   8   8   8
  0.1291993606484613E-16   9   1   1   1
  0.5003432731810525E-17   9   1   2   1
  0.1289463851110858E-16   9   1   2   2
  0.4084032990357783E-20   9   1   3   1
  0.6148564720994630E-20   9   1   3   2
 -0.3289200681704080E-17   9   1   3   3
  0.6666832934601058E-18   9   1   4   1
 -0.3147274704392887E-17   9   1   4   2
 -0.2450897988449853E-21   9   1   4   3
 -0.3358886387650832E-17   9   1   4   4
 -0.2843306959519370E-17   9   1   5   1
  0.2543597656065814E-18   9   1   5   2
  0.1327079425987410E-18   9   1   5   3
  0.2497056091750383E-17   9   1   5   4
 -0.2698190739629418E-17   9   1   5   5
  0.2173232159263574E-17   9   1   6   1
  0.3526830721474012E-17   9   1   6   2
  0.2103668561706931E-19   9   1   6   3
  0.4260513404751424E-17   9   1   6   4
  0.2342650726843771E-17   9   1   6   5
  0.4516004346525523E-17   9   1   6   6
  0.2599306351301895E-17   9   1   7   1
 -0.2670583639127005E-17   9   1   7   2
 -0.1277689679403809E-18   9   1   7   3
 -0.1753469252829308E-17   9   1   7   4
  0.3702604178206386E-17   9   1   7   5
  0.2255848188451744E-18   9   1   7   6
  0.1914215364697084E-17   9   1   7   7
  0.1051185190676063E-16   9   1   8   1
  0.2401694526020012E-16   9   1   8   2
  0.8582990782849862E-19   9   1   8   3
  0.2042180362453012E-16   9   1   8   4
  0.1066389408156555E-16   9   1   8   5
  0.1336067320287647E-16   9   1   8   6
  0.5231033780028442E-17   9   1   8   7
 -0.1207366287336590E-17   9   1   8   8
  0.9704787547207969E-02   9   1   9   1
  0.5851676294604641E-17   9   2   1   1
  0.1366124125224663E-16   9   2   2   1
  0.5864997988877648E-17   9   2   2   2
  0.6863931191513707E-20   9   2   3   1
  0.4162019193440663E-20   9   2   3   2
  0.2815388024191865E-17   9   2   3   3
 -0.3132451927863142E-17   9   2   4   1
  0.6746375180684881E-18   9   2   4   2
 -0.2979419710058698E-19   9   2   4   3
  0.3568650077249119E-17   9   2   4   4
  0.2505207720831645E-18   9   2   5   1
 -0.2835247424973646E-17   9   2   5   2
 -0.1397790730166673E-18   9   2   5   3
 -0.1931062499095458E-17   9   2   5   4
  0.3316521618045979E-17   9   2   5   5
  0.3518667713808692E-17   9   2   6   1
  0.2174786928308605E-17   9   2   6   2
  0.1766796846845001E-19   9   2   6   3
  0.2362751620315247E-17   9   2   6   4
  0.4610140183727608E-17   9   2   6   5
  0.4435269194896279E-17   9   2   6   6
 -0.2686948126288020E-17   9   2   7   1
  0.2580699000899621E-17   9   2   7   2
  0.1573349253097880E-18   9   2   7   3
  0.2831371857935160E-17   9   2   7   4
 -0.2481462407258921E-17   9   2   7   5