 &FCI NORB= 17,NELEC= 10,MS2= 0,
  ORBSYM=1,1,1,1,1,1,1,1,1,1,1,1,1,1,1,1,1,
  ISYM=0,
 /
  0.3504022178208960E+01   1   1   1   1
 -0.2922229246229103E+00   2   1   1   1
  0.3879842910990228E-01   2   1   2   1
  0.7249391275343050E+00   2   2   1   1
 -0.8742044875267030E-02   2   2   2   1
  0.5209130351669835E+00   2   2   2   2
 -0.1454648937712659E-01   3   1   1   1
  0.1429751083014550E-02   3   1   2   1
 -0.1870176646804620E-02   3   1   2   2
  0.1067111867536428E-01   3   1   3   1
  0.4417639435227485E-02   3   2   1   1
 -0.9574505310481092E-03   3   2   2   1
 -0.8928050105670278E-02   3   2   2   2
  0.1415625405167779E-01   3   2   3   1
  0.1064225009124855E+00   3   2   3   2
  0.6297141628363733E+00   3   3   1   1
 -0.4110887430891580E-02   3   3   2   1
  0.4823855245128994E+00   3   3   2   2
  0.4830481927132046E-02   3   3   3   1
  0.6198620830618049E-01   3   3   3   2
  0.5353109974293495E+00   3   3   3   3
  0.1608191552936702E-15   4   1   1   1
 -0.1395952648722450E-16   4   1   2   1
  0.3748630721986363E-16   4   1   2   2
 -0.1686045551289287E-16   4   1   3   1
 -0.8510987054011210E-17   4   1   3   2
 -0.7467819482798018E-16   4   1   3   3
  0.1058647049544867E-01   4   1   4   1
  0.9003325977800677E-16   4   2   1   1
  0.1506193986807597E-16   4   2   2   1
  0.1979071928321134E-15   4   2   2   2
  0.5692061405548898E-18   4   2   3   1
  0.1167143638680646E-15   4   2   3   2
 -0.1030782761417224E-14   4   2   3   3
  0.1422020693085220E-01   4   2   4   1
  0.1080699404507182E+00   4   2   4   2
 -0.2393056341325118E-15   4   3   1   1
  0.9516415162402064E-17   4   3   2   1
  0.4703403646439811E-17   4   3   2   2
 -0.8416796990276532E-16   4   3   3   1
 -0.1129928399110081E-14   4   3   3   2
 -0.8058488154285279E-15   4   3   3   3
 -0.1250256333286877E-02   4   3   4   1
 -0.2347345270088379E-01   4   3   4   2
  0.2145766268413580E-01   4   3   4   3
  0.6285162960781453E+00   4   4   1   1
 -0.3885170274028897E-02   4   4   2   1
  0.4855223509982303E+00   4   4   2   2
 -0.2320069663689153E-02   4   4   3   1
 -0.2625481206643771E-01   4   4   3   2
  0.4168345343389690E+00   4   4   3   3
  0.4700016417724662E-16   4   4   4   1
  0.7719519468096792E-15   4   4   4   2
  0.5672545766444159E-15   4   4   4   3
  0.5178085039002825E+00   4   4   4   4
  0.9371738200367810E-02   5   1   1   1
 -0.9258347013946643E-03   5   1   2   1
  0.1175518090044445E-02   5   1   2   2
 -0.3222434162420722E-04   5   1   3   1
 -0.1303862978639641E-04   5   1   3   2
  0.1566125683213147E-02   5   1   3   3
  0.6973198738271028E-17   5   1   4   1
  0.1698978685602676E-16   5   1   4   2
 -0.5081181243989097E-16   5   1   4   3
 -0.2739213482903821E-02   5   1   4   4
  0.1058747923446018E-01   5   1   5   1
 -0.2971074259480211E-02   5   2   1   1
  0.6064341361564753E-03   5   2   2   1
  0.5361434545507200E-02   5   2   2   2
 -0.2042516255710092E-04   5   2   3   1
 -0.1775140708289657E-02   5   2   3   2
  0.1857372386600005E-01   5   2   3   3
  0.2438777261734582E-16   5   2   4   1
  0.2473336205982557E-15   5   2   4   2
 -0.7446097232723103E-15   5   2   4   3
 -0.4493619858494263E-01   5   2   4   4
  0.1385001551552815E-01   5   2   5   1
  0.1043336658759490E+00   5   2   5   2
  0.2622586808970738E-03   5   3   1   1
 -0.9241728936842463E-04   5   3   2   1
 -0.2410319776297925E-02   5   3   2   2
  0.1021652010337507E-02   5   3   3   1
  0.1823267847727153E-01   5   3   3   2
  0.6969564320557575E-02   5   3   3   3
 -0.5403307873829907E-16   5   3   4   1
 -0.7634138547013558E-15   5   3   4   2
  0.3038476588390626E-15   5   3   4   3
  0.1438413978324709E-01   5   3   4   4
 -0.1582649595230650E-02   5   3   5   1
 -0.3005636154339771E-01   5   3   5   2
  0.3220918872080651E-01   5   3   5   3
  0.2524632943493219E-15   5   4   1   1
  0.3359332668810555E-17   5   4   2   1
  0.2842699081461444E-15   5   4   2   2
 -0.5325889062450864E-16   5   4   3   1
 -0.7695938070845232E-15   5   4   3   2
  0.4702422925123479E-15   5   4   3   3
 -0.3696161365537235E-02   5   4   4   1
 -0.4916045219308642E-01   5   4   4   2
  0.1601564768769885E-01   5   4   4   3
 -0.4594981793023937E-15   5   4   4   4
  0.3161465772331951E-16   5   4   5   1
  0.5204712529016664E-15   5   4   5   2
  0.3501973017128179E-16   5   4   5   3
  0.4550399173819309E-01   5   4   5   4
  0.6250128986137566E+00   5   5   1   1
 -0.3758313610506436E-02   5   5   2   1
  0.4851708220838608E+00   5   5   2   2
 -0.2832527564724659E-02   5   5   3   1
 -0.3459882183579590E-01   5   5   3   2
  0.4268757357843753E+00   5   5   3   3
  0.4954803928258755E-16   5   5   4   1
  0.6678685382510707E-15   5   5   4   2
 -0.8673617379884035E-17   5   5   4   3
  0.4416330407139761E+00   5   5   4   4
  0.1435817550014029E-02   5   5   5   1
  0.2586306099105824E-01   5   5   5   2
 -0.2079586823378102E-01   5   5   5   3
  0.3608224830031759E-15   5   5   5   4
  0.4970354279615546E+00   5   5   5   5
 -0.1883404949261390E+00   6   1   1   1
  0.2559074653043173E-01   6   1   2   1
 -0.5184948077157615E-02   6   1   2   2
  0.1057189641111943E-02   6   1   3   1
 -0.4639156321372565E-03   6   1   3   2
 -0.2138115227929184E-02   6   1   3   3
 -0.1529752090653107E-15   6   1   4   1
 -0.1552984086813924E-15   6   1   4   2
  0.1271904673597057E-16   6   1   4   3
 -0.2007218468683623E-02   6   1   4   4
 -0.7512144888055417E-03   6   1   5   1
  0.2106274880056946E-03   6   1   5   2
 -0.3284827724228406E-04   6   1   5   3
  0.2962921249495543E-16   6   1   5   4
 -0.1914811306499068E-02   6   1   5   5
  0.1692643144366745E-01   6   1   6   1
  0.2058814718847498E+00   6   2   1   1
 -0.5885586020406293E-02   6   2   2   1
  0.8414121140977314E-01   6   2   2   2
 -0.7173390670036563E-03   6   2   3   1
 -0.8163058125178675E-03   6   2   3   2
  0.6649875391232905E-01   6   2   3   3
 -0.1214713008998447E-15   6   2   4   1
 -0.2096847001586966E-15   6   2   4   2
 -0.2682316174729138E-15   6   2   4   3
  0.6680961980080713E-01   6   2   4   4
  0.4035712517532254E-03   6   2   5   1
  0.5284945982092834E-03   6   2   5   2
 -0.4965712757666815E-03   6   2   5   3
 -0.2773389157217920E-15   6   2   5   4
  0.6872590432785339E-01   6   2   5   5
 -0.3557016586024123E-02   6   2   6   1
  0.3615844598036239E-01   6   2   6   2
  0.4301984942044234E-02   6   3   1   1
 -0.4441318088316483E-03   6   3   2   1
  0.3321691538207423E-03   6   3   2   2
  0.4566188638052133E-02   6   3   3   1
  0.8756449019165522E-03   6   3   3   2
 -0.1030994534683790E-01   6   3   3   3
 -0.5700616438316167E-16   6   3   4   1
 -0.6062723023267380E-15   6   3   4   2
  0.1801130859041544E-15   6   3   4   3
  0.6123515987354868E-02   6   3   4   4
 -0.3045094954444009E-04   6   3   5   1
 -0.6487557304805495E-03   6   3   5   2
 -0.3535281254355324E-02   6   3   5   3
  0.4514888896772762E-15   6   3   5   4
  0.6509046616857875E-02   6   3   5   5
 -0.2325435513056093E-03   6   3   6   1
 -0.1176059773991227E-03   6   3   6   2
  0.1880444225927112E-01   6   3   6   3
 -0.3187498264877909E-14   6   4   1   1
  0.6313190665770477E-16   6   4   2   1
 -0.1218744627085293E-14   6   4   2   2
 -0.4768149630419430E-16   6   4   3   1
 -0.5811526932429645E-15   6   4   3   2
 -0.1178812245037275E-14   6   4   3   3
  0.4661465027224708E-02   6   4   4   1
  0.1418093258664374E-02   6   4   4   2
  0.5141004550987254E-02   6   4   4   3
 -0.7319613761269670E-15   6   4   4   4
 -0.5485215959829398E-16   6   4   5   1
 -0.7575998205514023E-15   6   4   5   2
  0.3524199161664132E-15   6   4   5   3
  0.8336135550663858E-02   6   4   5   4
 -0.1012220064445339E-14   6   4   5   5
 -0.8793705475981014E-16   6   4   6   1
 -0.9995259828143865E-15   6   4   6   2
  0.2384160577295624E-15   6   4   6   3
  0.1890868699077821E-01   6   4   6   4
 -0.4407163162347645E-02   6   5   1   1
  0.3320566811072385E-03   6   5   2   1
 -0.4677934017067958E-03   6   5   2   2
 -0.3210359733769033E-04   6   5   3   1
 -0.7194074991320436E-03   6   5   3   2
 -0.4201978191991653E-02   6   5   3   3
 -0.5322627985603935E-16   6   5   4   1
 -0.7963668244813371E-15   6   5   4   2
  0.3661045804622537E-15   6   5   4   3
  0.6192139749700135E-02   6   5   4   4
  0.5182112360413216E-02   6   5   5   1
  0.7183353789340756E-02   6   5   5   2
  0.4791247681328376E-02   6   5   5   3
  0.2283465300526033E-15   6   5   5   4
 -0.5014544247130416E-02   6   5   5   5
  0.1385123637944044E-03   6   5   6   1
 -0.4351597419267166E-03   6   5   6   2
  0.2542827537513630E-03   6   5   6   3
  0.4160625836913123E-15   6   5   6   4
  0.1791233594121465E-01   6   5   6   5
  0.3960138186753059E+00   6   6   1   1
 -0.3943137379797464E-02   6   6   2   1
  0.3220759789799622E+00   6   6   2   2
 -0.5852796502878971E-03   6   6   3   1
 -0.2970384589780745E-02   6   6   3   2
  0.3125264875089649E+00   6   6   3   3
 -0.1934216675714140E-15   6   6   4   1
 -0.1903859014884546E-14   6   6   4   2
  0.5846018114041840E-15   6   6   4   3
  0.3141010698829412E+00   6   6   4   4
  0.2689490439534144E-03   6   6   5   1
  0.8178506634915745E-03   6   6   5   2
 -0.3437513558872074E-03   6   6   5   3
  0.1313185671314443E-14   6   6   5   4
  0.3121070401860766E+00   6   6   5   5
 -0.2385012701939894E-02   6   6   6   1
  0.2207697091703342E-01   6   6   6   2
  0.7836623092963846E-03   6   6   6   3
  0.1526556658859590E-15   6   6   6   4
 -0.1236528607030229E-03   6   6   6   5
  0.2651246520221268E+00   6   6   6   6
 -0.2613643108118104E-03   7   1   1   1
 -0.1538429986557200E-03   7   1   2   1
 -0.5023356976034337E-03   7   1   2   2
 -0.7719318332357142E-03   7   1   3   1
 -0.9785502074923353E-03   7   1   3   2
 -0.1071743255981162E-02   7   1   3   3
  0.3178307963696918E-14   7   1   4   1
  0.4111724930802238E-14   7   1   4   2
 -0.2250346312288390E-15   7   1   4   3
  0.1517828342985879E-02   7   1   4   4
 -0.7069980734990481E-02   7   1   5   1
 -0.8895834661151453E-02   7   1   5   2
  0.6564111490103195E-03   7   1   5   3
 -0.9372114629507822E-15   7   1   5   4
 -0.4455260519830691E-03   7   1   5   5
 -0.1583504879552255E-04   7   1   6   1
 -0.1131202077945168E-03   7   1   6   2
 -0.3117572741548479E-03   7   1   6   3
  0.1431688968767109E-14   7   1   6   4
 -0.3461504799009699E-02   7   1   6   5
 -0.7249023208383211E-04   7   1   6   6
  0.4808733660674678E-02   7   1   7   1
 -0.4215013757343222E-02   7   2   1   1
 -0.1076409948063218E-03   7   2   2   1
 -0.3770285869001145E-02   7   2   2   2
 -0.8191136828948383E-03   7   2   3   1
 -0.4036053968603187E-02   7   2   3   2
  0.2080775693033018E-02   7   2   3   3
  0.2963939383098142E-14   7   2   4   1
  0.1076532797367885E-13   7   2   4   2
  0.2235726523618781E-14   7   2   4   3
 -0.1361691537341470E-01   7   2   4   4
 -0.6471512888590900E-02   7   2   5   1
 -0.2023433374992077E-01   7   2   5   2
 -0.8301224525764657E-02   7   2   5   3
  0.2595308950387176E-14   7   2   5   4
  0.4966360239112459E-02   7   2   5   5
  0.8662672766952329E-05   7   2   6   1
 -0.5759381372801775E-03   7   2   6   2
 -0.1618513121006915E-02   7   2   6   3
  0.6291950467585128E-14   7   2   6   4
 -0.1554398799230678E-01   7   2   6   5
 -0.1410454757939767E-02   7   2   6   6
  0.4494818266003407E-02   7   2   7   1
  0.2614633054312151E-01   7   2   7   2
 -0.1793652585706115E-01   7   3   1   1
  0.1580275436947670E-03   7   3   2   1
 -0.1093508654421503E-01   7   3   2   2
  0.1293367258090279E-02   7   3   3   1
  0.1746394531623527E-01   7   3   3   2
 -0.1100646205875498E-03   7   3   3   3
  0.7409573172037498E-15   7   3   4   1
  0.8131841554293029E-14   7   3   4   2
  0.1657745121730336E-14   7   3   4   3
  0.1653870168804141E-02   7   3   4   4
 -0.2001377278527727E-02   7   3   5   1
 -0.2381468566838102E-01   7   3   5   2
  0.4528982481312446E-02   7   3   5   3
 -0.4620544398481474E-14   7   3   5   4
 -0.2154668590644871E-01   7   3   5   5
  0.1098345947149854E-03   7   3   6   1
 -0.3684281448171585E-02   7   3   6   2
 -0.5141198372281747E-02   7   3   6   3
 -0.1701763729933248E-14   7   3   6   4
  0.4309371286920279E-02   7   3   6   5
 -0.2711208101550973E-02   7   3   6   6
  0.1276272988079598E-02   7   3   7   1
  0.2176268074990792E-02   7   3   7   2
  0.2034193872285721E-01   7   3   7   3
  0.7369919304016955E-13   7   4   1   1
 -0.1174025781377087E-14   7   4   2   1
  0.3319991656826494E-13   7   4   2   2
  0.5537789177283104E-15   7   4   3   1
  0.8164503144739155E-14   7   4   3   2
  0.3325677932904998E-13   7   4   3   3
 -0.2687816971590861E-02   7   4   4   1
 -0.3744972091497639E-01   7   4   4   2
  0.1033054303968252E-01   7   4   4   3
  0.2084315593932195E-13   7   4   4   4
  0.9004095754584773E-15   7   4   5   1
  0.1197338669184367E-13   7   4   5   2
 -0.3213683659464284E-14   7   4   5   3
  0.1482418765340882E-01   7   4   5   4
  0.2508121446336103E-13   7   4   5   5
 -0.5848881085403559E-15   7   4   6   1
  0.1418006337350342E-13   7   4   6   2
 -0.1759714336052598E-14   7   4   6   3
  0.1041362943617154E-01   7   4   6   4
 -0.3267351667002316E-14   7   4   6   5
  0.8214688043497349E-14   7   4   6   6
 -0.1478567160199951E-14   7   4   7   1
 -0.3004974741260824E-14   7   4   7   2
 -0.7702605914206018E-14   7   4   7   3
  0.2634867742760456E-01   7   4   7   4
 -0.1591410970671016E+00   7   5   1   1
  0.2766105557381328E-02   7   5   2   1
 -0.6551003383128746E-01   7   5   2   2
 -0.1631387407624911E-02   7   5   3   1
 -0.2541584864627030E-01   7   5   3   2
 -0.6173607631906871E-01   7   5   3   3
  0.8027432885082675E-15   7   5   4   1
  0.1281548651921316E-13   7   5   4   2
 -0.3877323809242661E-14   7   5   4   3
 -0.5017272812802562E-01   7   5   4   4
  0.1511069647054336E-02   7   5   5   1
  0.2013062759350117E-01   7   5   5   2
 -0.1388652555310073E-01   7   5   5   3
 -0.4387630666777276E-14   7   5   5   4
 -0.4791749738140180E-01   7   5   5   5
  0.1408900417899700E-02   7   5   6   1
 -0.3152629287818928E-01   7   5   6   2
  0.5885652484450374E-02   7   5   6   3
 -0.4002007059078494E-14   7   5   6   4
 -0.2585156261232971E-02   7   5   6   5
 -0.1506290154323631E-01   7   5   6   6
 -0.9620741822713980E-03   7   5   7   1
 -0.1086124352210096E-02   7   5   7   2
 -0.8907890697203918E-02   7   5   7   3
 -0.1955824825011776E-13   7   5   7   4
  0.5186460992781874E-01   7   5   7   5
  0.2051429504196015E-02   7   6   1   1
 -0.1216323039916794E-03   7   6   2   1
  0.2235381570224295E-03   7   6   2   2
 -0.5828576700134026E-03   7   6   3   1
 -0.4861901204113869E-02   7   6   3   2
 -0.1243243354295479E-01   7   6   3   3
  0.2281944029352764E-14   7   6   4   1
  0.1954864628462769E-13   7   6   4   2
 -0.5111660877563096E-14   7   6   4   3
  0.2638470608505029E-01   7   6   4   4
 -0.4967794056334852E-02   7   6   5   1
 -0.4105597596900224E-01   7   6   5   2
  0.1392198378842255E-01   7   6   5   3
 -0.1131766121792444E-13   7   6   5   4
 -0.8856389813150336E-02   7   6   5   5
 -0.1697365531243180E-04   7   6   6   1
  0.3312096471176857E-05   7   6   6   2
  0.2185775219079100E-02   7   6   6   3
 -0.5265753111327598E-14   7   6   6   4
  0.9889674613158261E-02   7   6   6   5
  0.1248419340919051E-02   7   6   6   6
  0.3256013661842753E-02   7   6   7   1
 -0.2449593339124825E-02   7   6   7   2
  0.1330499939378904E-01   7   6   7   3
 -0.2072690977183989E-13   7   6   7   4
 -0.1081094119525364E-01   7   6   7   5
  0.4059898065879883E-01   7   6   7   6
  0.4172789214703429E+00   7   7   1   1
 -0.1806306769677218E-02   7   7   2   1
  0.3550075254200549E+00   7   7   2   2
  0.3327129474446850E-04   7   7   3   1
 -0.9071280273748461E-02   7   7   3   2
  0.3325374511092557E+00   7   7   3   3
 -0.1997100401718299E-15   7   7   4   1
  0.1413105743530707E-13   7   7   4   2
 -0.8907805049140904E-14   7   7   4   3
  0.3400555969612931E+00   7   7   4   4
 -0.1853910045699265E-03   7   7   5   1
  0.6158080982700624E-02   7   7   5   2
 -0.1046639748123340E-01   7   7   5   3
 -0.1798387827545156E-13   7   7   5   4
  0.3564429576620480E+00   7   7   5   5
 -0.9018269426927378E-03   7   7   6   1
  0.2880414908115270E-01   7   7   6   2
  0.1004156359758321E-01   7   7   6   3
 -0.1590394482775537E-13   7   7   6   4
 -0.7539481402252458E-02   7   7   6   5
  0.2760787646987199E+00   7   7   6   6
  0.2245015044124805E-03   7   7   7   1
  0.5172080894274130E-02   7   7   7   2
 -0.1015255550268380E-01   7   7   7   3
 -0.5551115123125783E-16   7   7   7   4
 -0.1613980278246399E-01   7   7   7   5
 -0.8338195423976860E-02   7   7   7   6
  0.3110939162048655E+00   7   7   7   7
  0.5235160073381814E-02   8   1   1   1
 -0.3158449027495732E-03   8   1   2   1
  0.1197661037829159E-02   8   1   2   2
 -0.7315484110861970E-02   8   1   3   1
 -0.9368463585489633E-02   8   1   3   2
 -0.2704282925476546E-02   8   1   3   3
  0.7119030283217432E-14   8   1   4   1
  0.9156561685090547E-14   8   1   4   2
 -0.5216638752914005E-15   8   1   4   3
  0.1109738469006327E-02   8   1   4   4
  0.8725942477289492E-03   8   1   5   1
  0.1093162142411878E-02   8   1   5   2
 -0.5923046853658025E-03   8   1   5   3
 -0.2015043947672934E-14   8   1   5   4
  0.1667759306558412E-02   8   1   5   5
 -0.2984227888901774E-03   8   1   6   1
  0.4009468560446221E-03   8   1   6   2
 -0.3155308886192677E-02   8   1   6   3
  0.3157955667798529E-14   8   1   6   4
  0.4421190902235187E-03   8   1   6   5
  0.3430954984182991E-03   8   1   6   6
 -0.5221060404680978E-04   8   1   7   1
  0.3357267003602271E-04   8   1   7   2
 -0.1085102997333649E-02   8   1   7   3
 -0.2161411240958477E-14   8   1   7   4
  0.1299208343492251E-02   8   1   7   5
 -0.1189829397710393E-04   8   1   7   6
 -0.1767292060213185E-03   8   1   7   7
  0.5111367473732053E-02   8   1   8   1
  0.3732217094677606E-02   8   2   1   1
  0.3831085263926142E-03   8   2   2   1
  0.6220819508922366E-02   8   2   2   2
 -0.6732301937835117E-02   8   2   3   1
 -0.2492557624232622E-01   8   2   3   2
  0.8601195870466743E-02   8   2   3   3
  0.6509322838773104E-14   8   2   4   1
  0.2311323875348048E-13   8   2   4   2
  0.5284184548259852E-14   8   2   4   3
  0.1431666194992373E-02   8   2   4   4
  0.6842140396890187E-03   8   2   5   1
  0.1358419850355231E-02   8   2   5   2
  0.4684422953988338E-02   8   2   5   3
  0.5556752974422707E-14   8   2   5   4
 -0.1534221106832118E-02   8   2   5   5
  0.1605098127352894E-03   8   2   6   1
  0.9541749467686794E-03   8   2   6   2
 -0.1390113506123897E-01   8   2   6   3
  0.1392245693732086E-13   8   2   6   4
  0.1734759864667983E-02   8   2   6   5
  0.2266717561807426E-02   8   2   6   6
  0.2584333875059325E-04   8   2   7   1
  0.3818764919714163E-03   8   2   7   2
 -0.2520515852133605E-02   8   2   7   3
 -0.4682886023399391E-14   8   2   7   4
  0.2333899896501309E-02   8   2   7   5
  0.2369364086825742E-04   8   2   7   6
 -0.6834235282699093E-02   8   2   7   7
  0.4735722487863563E-02   8   2   8   1
  0.2430250766411053E-01   8   2   8   2
 -0.1669448785538111E+00   8   3   1   1
  0.2633271032576649E-02   8   3   2   1
 -0.7695138368881291E-01   8   3   2   2
  0.2042346412391709E-02   8   3   3   1
  0.3167210631316089E-01   8   3   3   2
 -0.3969053570138763E-01   8   3   3   3
  0.1683196767729433E-14   8   3   4   1
  0.1857238321467669E-13   8   3   4   2
  0.2802445775440532E-14   8   3   4   3
 -0.7481902192594672E-01   8   3   4   4
  0.1142940758436756E-02   8   3   5   1
  0.1613582435980192E-01   8   3   5   2
  0.3374865226855200E-02   8   3   5   3
 -0.1013143562100804E-13   8   3   5   4
 -0.6473132556944468E-01   8   3   5   5
  0.1406554497900701E-02   8   3   6   1
 -0.3190123664665648E-01   8   3   6   2
 -0.1252385308753829E-01   8   3   6   3
 -0.4159866895392383E-14   8   3   6   4
 -0.3010338638985879E-02   8   3   6   5
 -0.1950535163853551E-01   8   3   6   6
 -0.9977754456747408E-03   8   3   7   1
 -0.2265277930948402E-02   8   3   7   2
  0.6498843861119208E-02   8   3   7   3
 -0.1472520022582913E-13   8   3   7   4
  0.2010267324230626E-01   8   3   7   5
 -0.1367646593478015E-01   8   3   7   6
 -0.3094580939725630E-01   8   3   7   7
 -0.1307995315454394E-02   8   3   8   1
 -0.2439806461207839E-02   8   3   8   2
  0.5848823778618809E-01   8   3   8   3
  0.1622923258366653E-12   8   4   1   1
 -0.2629301017835202E-14   8   4   2   1
  0.7236405677961818E-13   8   4   2   2
  0.1265953578928326E-14   8   4   3   1
  0.1864105048164470E-13   8   4   3   2
  0.7182755614008461E-13   8   4   3   3
 -0.1024576355980296E-02   8   4   4   1
 -0.1145796615748028E-01   8   4   4   2
 -0.5284179564382045E-02   8   4   4   3
  0.4648746496314723E-13   8   4   4   4
  0.1880762967511763E-14   8   4   5   1
  0.2506166525391776E-13   8   4   5   2
 -0.7077319416279315E-14   8   4   5   3
  0.7236176753660934E-02   8   4   5   4
  0.5450433844695760E-13   8   4   5   5
 -0.1387729546991387E-14   8   4   6   1
  0.3120680797108477E-13   8   4   6   2
 -0.4356554722008410E-14   8   4   6   3
  0.3403091160672920E-02   8   4   6   4
 -0.7592234133046993E-14   8   4   6   5
  0.1722927123990182E-13   8   4   6   6
 -0.1729895388177458E-14   8   4   7   1
 -0.4089556384506698E-14   8   4   7   2
 -0.1007809287412176E-13   8   4   7   3
  0.6362778036690057E-02   8   4   7   4
 -0.2722061671119741E-13   8   4   7   5
 -0.2360698442283038E-13   8   4   7   6
  0.2108074895484988E-13   8   4   7   7
 -0.1538954680108551E-14   8   4   8   1
 -0.5799072159973218E-14   8   4   8   2
 -0.1817464364770038E-13   8   4   8   3
  0.9763984135288725E-02   8   4   8   4
  0.1913502919020508E-01   8   5   1   1
 -0.4437746549270170E-03   8   5   2   1
  0.5552275775141305E-02   8   5   2   2
  0.1415063386451676E-02   8   5   3   1
  0.1733550053496872E-01   8   5   3   2
  0.1266810931129892E-01   8   5   3   3
  0.1673807407509120E-14   8   5   4   1
  0.2686845429304696E-13   8   5   4   2
 -0.8619868057183067E-14   8   5   4   3
  0.1260686125667184E-01   8   5   4   4
 -0.1608434851280176E-02   8   5   5   1
 -0.2094142563694673E-01   8   5   5   2
  0.3662896342456341E-02   8   5   5   3
 -0.9903211063699846E-14   8   5   5   4
 -0.6782133913507821E-02   8   5   5   5
 -0.2091045685241948E-03   8   5   6   1
  0.3583275091145198E-02   8   5   6   2
 -0.4173484577125290E-02   8   5   6   3
 -0.9159827844135160E-14   8   5   6   4
  0.4983403841929836E-02   8   5   6   5
  0.1256686599624493E-02   8   5   6   6
  0.1047010022885486E-02   8   5   7   1
  0.1555499431600364E-02   8   5   7   2
  0.1432478534510445E-01   8   5   7   3
 -0.1830913892719721E-13   8   5   7   4
 -0.1536573442300075E-01   8   5   7   5
  0.1419279786602634E-01   8   5   7   6
 -0.4377651620663898E-02   8   5   7   7
 -0.1150704766456170E-02   8   5   8   1
 -0.2769372838527528E-02   8   5   8   2
 -0.4894242793098691E-03   8   5   8   3
 -0.5101821742847790E-14   8   5   8   4
  0.1909514056682916E-01   8   5   8   5
 -0.4042822445393871E-02   8   6   1   1
  0.3240853336881302E-03   8   6   2   1
  0.7551913651095807E-03   8   6   2   2
 -0.5169821571571902E-02   8   6   3   1
 -0.4435778017414083E-01   8   6   3   2
 -0.3469491273593989E-01   8   6   3   3
  0.5051987406429030E-14   8   6   4   1
  0.4331658729622712E-13   8   6   4   2
 -0.1187873584218568E-13   8   6   4   3
  0.9468590427517054E-02   8   6   4   4
  0.5754360947118908E-03   8   6   5   1
  0.4963039686754845E-02   8   6   5   2
 -0.1118359285161969E-01   8   6   5   3
 -0.2442707494609841E-13   8   6   5   4
  0.1667085074691693E-01   8   6   5   5
  0.1418671680957186E-03   8   6   6   1
 -0.1759530549568663E-03   8   6   6   2
  0.1404658844179536E-01   8   6   6   3
 -0.1351089379264536E-13   8   6   6   4
 -0.4795039349623879E-03   8   6   6   5
 -0.1278393295549888E-03   8   6   6   6
 -0.2016841349504694E-04   8   6   7   1
  0.9627229352081918E-04   8   6   7   2
 -0.1419257399521845E-01   8   6   7   3
 -0.2944042579167139E-13   8   6   7   4
  0.1867661580425557E-01   8   6   7   5
  0.1755402225204225E-02   8   6   7   6
  0.1548599485447886E-01   8   6   7   7
  0.3469274351957327E-02   8   6   8   1
 -0.1087895528550067E-02   8   6   8   2
 -0.2380212141849087E-01   8   6   8   3
 -0.1908802976791080E-13   8   6   8   4
 -0.1370225184904102E-01   8   6   8   5
  0.4596708652133555E-01   8   6   8   6
 -0.2351855463018682E-02   8   7   1   1
  0.4973436734767421E-04   8   7   2   1
 -0.2047790067776411E-02   8   7   2   2
 -0.2257784468966354E-03   8   7   3   1
  0.8266914174465383E-02   8   7   3   2
  0.6938744093536420E-02   8   7   3   3
 -0.3861373331812915E-15   8   7   4   1
  0.1649472659154272E-13   8   7   4   2
 -0.1142356066512196E-13   8   7   4   3
  0.5894368528762035E-02   8   7   4   4
  0.4298262771065999E-03   8   7   5   1
 -0.8962732949912410E-02   8   7   5   2
  0.1420255369979964E-01   8   7   5   3
 -0.2223140291648940E-13   8   7   5   4
 -0.1700174095712477E-01   8   7   5   5
  0.1254803285598681E-04   8   7   6   1
 -0.6045816431629900E-03   8   7   6   2
 -0.9918893354458428E-02   8   7   6   3
 -0.1897955534055362E-13   8   7   6   4
  0.1086334173882365E-01   8   7   6   5
 -0.6531310345663012E-04   8   7   6   6
 -0.3985284754796321E-03   8   7   7   1
 -0.9454910089339585E-02   8   7   7   2
  0.8162863047565569E-02   8   7   7   3
 -0.1635714133585431E-13   8   7   7   4
 -0.8630780161457708E-02   8   7   7   5
  0.1528782473252771E-01   8   7   7   6
 -0.1636292321139875E-01   8   7   7   7
  0.3152739919756524E-03   8   7   8   1
  0.8536545917747038E-02   8   7   8   2
  0.5259654931729679E-02   8   7   8   3
 -0.8557174066559092E-14   8   7   8   4
  0.8124249645333224E-02   8   7   8   5
 -0.1790090368582681E-01   8   7   8   6
  0.2385601355354947E-01   8   7   8   7
  0.4080625023942505E+00   8   8   1   1
 -0.1896728327395576E-02   8   8   2   1
  0.3433186789171567E+00   8   8   2   2
  0.8919276036975857E-04   8   8   3   1
  0.1883628932444836E-01   8   8   3   2
  0.3649077944306751E+00   8   8   3   3
 -0.7761532302280605E-15   8   8   4   1
  0.6513886652292911E-14   8   8   4   2
 -0.8573003418277381E-14   8   8   4   3
  0.3124767572618806E+00   8   8   4   4
 -0.1868751834647514E-03   8   8   5   1
  0.7077698786099908E-02   8   8   5   2
  0.1313128516805280E-02   8   8   5   3
 -0.1026435880735477E-13   8   8   5   4
  0.3228032028276621E+00   8   8   5   5
 -0.9839443941821804E-03   8   8   6   1
  0.2722713849253522E-01   8   8   6   2
 -0.1815317522609577E-01   8   8   6   3
 -0.1354472090042691E-13   8   8   6   4
 -0.9549317438861088E-02   8   8   6   5
  0.2709054300547891E+00   8   8   6   6
  0.2725177799536631E-03   8   8   7   1
  0.7408928344632000E-02   8   8   7   2
  0.1086788078271964E-02   8   8   7   3
  0.7355227538141662E-14   8   8   7   4
 -0.2721639649758223E-01   8   8   7   5
 -0.1687796537636083E-01   8   8   7   6
  0.2763934948065437E+00   8   8   7   7
  0.7321982968013646E-04   8   8   8   1
  0.1228149691126371E-01   8   8   8   2
 -0.4506878945737924E-02   8   8   8   3
  0.3526345881965653E-13   8   8   8   4
  0.5055702225223287E-02   8   8   8   5
 -0.3249585515546616E-01   8   8   8   6
  0.5893821703133208E-02   8   8   8   7
  0.3235494644255052E+00   8   8   8   8
  0.1085845886737684E-13   9   1   1   1
 -0.1151570090912428E-14   9   1   2   1
  0.1099367216215415E-14   9   1   2   2
 -0.7504426039053403E-14   9   1   3   1
 -0.9544868693166231E-14   9   1   3   2
 -0.2985447060977992E-14   9   1   3   3
 -0.7378099851731733E-02   9   1   4   1
 -0.9497617545260174E-02   9   1   4   2
  0.5855214076653960E-03   9   1   4   3
  0.1826257862050486E-14   9   1   4   4
 -0.2382274234922089E-14   9   1   5   1
 -0.3024544590474187E-14   9   1   5   2
 -0.2492851845087296E-15   9   1   5   3
  0.2120471834649181E-02   9   1   5   4
  0.1487059608961426E-14   9   1   5   5
 -0.7049368176052870E-15   9   1   6   1
  0.5580930682869134E-15   9   1   6   2
 -0.3174218700385811E-14   9   1   6   3
 -0.3242454411805512E-02   9   1   6   4
 -0.1142098568496230E-14   9   1   6   5
  0.7755469307089938E-15   9   1   6   6
 -0.8331585475782749E-16   9   1   7   1
 -0.3686287386450715E-17   9   1   7   2
 -0.1014054291925692E-14   9   1   7   3
  0.1884484936831154E-02   9   1   7   4
  0.2064320936412400E-15   9   1   7   5
 -0.1392115589471388E-15   9   1   7   6
  0.3462833079299656E-15   9   1   7   7
 -0.1656542334945235E-16   9   1   8   1
  0.2694242398626479E-16   9   1   8   2
 -0.3000204251701888E-14   9   1   8   3
  0.7740825994484333E-03   9   1   8   4
 -0.1840433187794144E-14   9   1   8   5
 -0.6223320470066795E-16   9   1   8   6
  0.5746271514173174E-15   9   1   8   7
  0.9091553467691504E-15   9   1   8   8
  0.5156378049127238E-02   9   1   9   1
 -0.4011690177159032E-14   9   2   1   1
  0.5023793703021434E-15   9   2   2   1
  0.2229419230294115E-14   9   2   2   2
 -0.6875198826218718E-14   9   2   3   1
 -0.2594451075418197E-13   9   2   3   2
  0.7505483262752446E-14   9   2   3   3
 -0.6740345625163030E-02   9   2   4   1
 -0.2390266973194475E-01   9   2   4   2
 -0.5619854628961665E-02   9   2   4   3
 -0.6439845065282120E-14   9   2   4   4
 -0.2267136199368865E-14   9   2   5   1
 -0.7545152653706810E-14   9   2   5   2
  0.5256212132209725E-15   9   2   5   3
 -0.5928285547206405E-02   9   2   5   4
 -0.6940410646111254E-15   9   2   5   5
  0.4046587673641909E-15   9   2   6   1
  0.4755310728521422E-15   9   2   6   2
 -0.1414623626572187E-13   9   2   6   3
 -0.1431654208877250E-01   9   2   6   4
 -0.5407133074619708E-14   9   2   6   5
  0.4369687175390161E-15   9   2   6   6
  0.5990217002982412E-17   9   2   7   1
  0.1539133404060422E-14   9   2   7   2
 -0.3197312206659753E-14   9   2   7   3
  0.3393657573620496E-02   9   2   7   4
  0.1827056843491104E-14   9   2   7   5