 &FCI NORB= 13,NELEC= 10,MS2= 0,
  ORBSYM=1,1,1,1,1,1,1,1,1,1,1,1,1,
  ISYM=0,
 /
  0.4739562867406113E+01   1   1   1   1
 -0.4275136930490248E+00   2   1   1   1
  0.6314802226757726E-01   2   1   2   1
  0.1042705919555616E+01   2   2   1   1
 -0.1303732440833461E-01   2   2   2   1
  0.7573419547205045E+00   2   2   2   2
  0.4090685929381158E-15   3   1   1   1
 -0.3520830088116428E-16   3   1   2   1
  0.5691692010079683E-16   3   1   2   2
  0.1958495332423987E-01   3   1   3   1
 -0.4624622865261437E-16   3   2   1   1
  0.2845353076416646E-16   3   2   2   1
  0.1070329552872068E-15   3   2   2   2
  0.2299931306224680E-01   3   2   3   1
  0.1499211358771088E+00   3   2   3   2
  0.8733123089734308E+00   3   3   1   1
 -0.6455742836084841E-02   3   3   2   1
  0.6748545094462013E+00   3   3   2   2
 -0.1688644883646173E-16   3   3   3   1
  0.8066464163292153E-16   3   3   3   2
  0.6575097664436279E+00   3   3   3   3
  0.1512252327862014E+00   4   1   1   1
 -0.1722178667761502E-01   4   1   2   1
  0.1680180651549048E-01   4   1   2   2
  0.3879495601719421E-16   4   1   3   1
  0.2100641709190665E-17   4   1   3   2
  0.6323887260493209E-02   4   1   3   3
  0.3068056885433971E-01   4   1   4   1
 -0.8590446687122609E-01   4   2   1   1
  0.8752566478258755E-02   4   2   2   1
  0.2340251914785469E-01   4   2   2   2
 -0.5078809551736785E-17   4   2   3   1
 -0.1611124428313460E-15   4   2   3   2
  0.9484512416971016E-02   4   2   3   3
  0.2149151058940844E-01   4   2   4   1
  0.1149654719437648E+00   4   2   4   2
  0.4719131322041175E-15   4   3   1   1
 -0.2250439485912588E-16   4   3   2   1
  0.6238285174139739E-16   4   3   2   2
 -0.4319202996705177E-02   4   3   3   1
  0.1203341383116061E-01   4   3   3   2
  0.2136369434278415E-15   4   3   3   3
 -0.3589217410695372E-16   4   3   4   1
 -0.2418990572086721E-15   4   3   4   2
  0.4140494611638547E-01   4   3   4   3
  0.9850620940335386E+00   4   4   1   1
 -0.1397285708297101E-01   4   4   2   1
  0.6676267057675811E+00   4   4   2   2
 -0.1162806829990704E-16   4   4   3   1
 -0.2142383492831357E-15   4   4   3   2
  0.6022529939654846E+00   4   4   3   3
 -0.1174533041496885E-01   4   4   4   1
 -0.8217734120235642E-01   4   4   4   2
  0.2602085213965211E-15   4   4   4   3
  0.7399281185567453E+00   4   4   4   4
  0.2839699057706718E-15   5   1   1   1
 -0.4223434943844479E-16   5   1   2   1
  0.1255107627767379E-16   5   1   2   2
  0.1643604230427729E-16   5   1   3   1
  0.1828863694812851E-16   5   1   3   2
  0.6604057282306719E-17   5   1   3   3
  0.4618110557252222E-17   5   1   4   1
 -0.1333892632037417E-16   5   1   4   2
 -0.5981333319454498E-17   5   1   4   3
  0.1507207079591345E-16   5   1   4   4
  0.3016466924757028E-01   5   1   5   1
 -0.3471802817462796E-15   5   2   1   1
  0.1050366349210558E-16   5   2   2   1
 -0.1244955063694906E-15   5   2   2   2
  0.1351125265265250E-16   5   2   3   1
  0.4753658717928391E-16   5   2   3   2
 -0.7862876809047306E-16   5   2   3   3
 -0.1590106493717325E-16   5   2   4   1
 -0.2030464244262866E-16   5   2   4   2
 -0.2530801396930280E-16   5   2   4   3
 -0.1043761552926646E-15   5   2   4   4
  0.3008834275728489E-01   5   2   5   1
  0.1290409263898754E+00   5   2   5   2
  0.4072781478579359E-15   5   3   1   1
 -0.6367608224147858E-17   5   3   2   1
  0.2220219949262986E-15   5   3   2   2
 -0.6919369323925950E-17   5   3   3   1
  0.3186163672962773E-16   5   3   3   2
  0.1953930190543486E-15   5   3   3   3
  0.1370336792424360E-17   5   3   4   1
 -0.3340418772691699E-16   5   3   4   2
  0.2502434033402250E-16   5   3   4   3
  0.2112865316452575E-15   5   3   4   4
 -0.3435575148109819E-16   5   3   5   1
 -0.1201222562101276E-15   5   3   5   2
  0.2843943858013520E-01   5   3   5   3
 -0.1067899342153844E-15   5   4   1   1
 -0.2417104846006139E-17   5   4   2   1
 -0.7281853772574408E-16   5   4   2   2
 -0.5593504829976567E-17   5   4   3   1
 -0.3159012494664544E-16   5   4   3   2
 -0.2928295384203256E-16   5   4   3   3
 -0.7477757108817088E-17   5   4   4   1
  0.3475321323714202E-17   5   4   4   2
  0.1642069414121684E-16   5   4   4   3
 -0.6270094497966562E-16   5   4   4   4
 -0.1071668758746262E-01   5   4   5   1
 -0.3625067830743028E-01   5   4   5   2
  0.5926100603930360E-16   5   4   5   3
  0.4613878727306213E-01   5   4   5   4
  0.1041221724206223E+01   5   5   1   1
 -0.1141440892222484E-01   5   5   2   1
  0.7113800679254418E+00   5   5   2   2
  0.4309703635629880E-17   5   5   3   1
 -0.6591949208711867E-16   5   5   3   2
  0.6172989679903319E+00   5   5   3   3
  0.3673659243918548E-02   5   5   4   1
 -0.4303466028912367E-01   5   5   4   2
  0.2376571162088226E-15   5   5   4   3
  0.6671940499017124E+00   5   5   4   4
 -0.3164360484401917E-16   5   5   5   1
 -0.2971504746360096E-15   5   5   5   2
  0.2516758231393140E-15   5   5   5   3
 -0.3765627316623865E-16   5   5   5   4
  0.7637453615923487E+00   5   5   5   5
  0.1496873868159245E+00   6   1   1   1
 -0.2405586796173971E-01   6   1   2   1
  0.5549903049782521E-03   6   1   2   2
 -0.3296101659298022E-16   6   1   3   1
 -0.5950914674229812E-16   6   1   3   2
  0.7571846180407496E-03   6   1   3   3
 -0.1289525265485568E-02   6   1   4   1
 -0.1030189638855723E-01   6   1   4   2
  0.2787754836003353E-16   6   1   4   3
  0.9343579457183742E-02   6   1   4   4
 -0.2122009697338455E-16   6   1   5   1
 -0.3901618961518646E-16   6   1   5   2
  0.2115721547567598E-17   6   1   5   3
  0.1753189435698982E-16   6   1   5   4
  0.3381274776553157E-02   6   1   5   5
  0.1154667537106337E-01   6   1   6   1
 -0.2223495567748238E+00   6   2   1   1
  0.4168463170250297E-02   6   2   2   1
 -0.1157678732771682E+00   6   2   2   2
 -0.7499290901810673E-16   6   2   3   1
 -0.3339884792341596E-15   6   2   3   2
 -0.7676115312337349E-01   6   2   3   3
 -0.1123773774597433E-01   6   2   4   1
 -0.1799082832049097E-01   6   2   4   2
 -0.4640385298237959E-16   6   2   4   3
 -0.7468773029873384E-01   6   2   4   4
 -0.3936736283815895E-16   6   2   5   1
 -0.9558319643726008E-16   6   2   5   2
 -0.5641233756861723E-16   6   2   5   3
  0.7996759688467282E-16   6   2   5   4
 -0.1037880255418454E+00   6   2   5   5
  0.1579267555807673E-02   6   2   6   1
  0.4421305492525814E-01   6   2   6   2
 -0.1400236086133460E-14   6   3   1   1
  0.1172611236355172E-16   6   3   2   1
 -0.8326900303370883E-15   6   3   2   2
 -0.3884145783141107E-02   6   3   3   1
  0.9613944015604231E-02   6   3   3   2
 -0.6713165372681966E-15   6   3   3   3
 -0.7453254661127402E-17   6   3   4   1
 -0.5122855264994008E-17   6   3   4   2
  0.7893061118196442E-02   6   3   4   3
 -0.7920133518954917E-15   6   3   4   4
 -0.4501509816344797E-17   6   3   5   1
 -0.2501118179169609E-16   6   3   5   2
  0.7331148988457481E-17   6   3   5   3
 -0.1092323986319439E-16   6   3   5   4
 -0.7392194677325408E-15   6   3   5   5
  0.1434562792738465E-16   6   3   6   1
  0.1462588730682945E-15   6   3   6   2
  0.2574148712201473E-01   6   3   6   3
 -0.1293330604451187E+00   6   4   1   1
  0.9416294202504276E-03   6   4   2   1
 -0.6562845519568813E-01   6   4   2   2
  0.8566044195582739E-17   6   4   3   1
 -0.5586351693731562E-16   6   4   3   2
 -0.4119037269862592E-01   6   4   3   3
 -0.2878075364608323E-02   6   4   4   1
  0.1015755412673277E-01   6   4   4   2
 -0.1720086746648253E-15   6   4   4   3
 -0.7160879736815044E-01   6   4   4   4
  0.1555838689819593E-16   6   4   5   1
  0.9403050151756321E-16   6   4   5   2
 -0.3901563283038624E-16   6   4   5   3
 -0.3090038141220766E-16   6   4   5   4
 -0.6416927949321380E-01   6   4   5   5
  0.5555256169528979E-03   6   4   6   1
  0.2460099501032558E-01   6   4   6   2
  0.1166601537594403E-15   6   4   6   3
  0.2560057576502870E-01   6   4   6   4
 -0.7322428622064088E-15   6   5   1   1
  0.1164258119220885E-16   6   5   2   1
 -0.3783981586989150E-15   6   5   2   2
 -0.7713463586031161E-17   6   5   3   1
 -0.7652751187340595E-16   6   5   3   2
 -0.2750217242963245E-15   6   5   3   3
  0.7880114905979862E-17   6   5   4   1
  0.1084302166221404E-15   6   5   4   2
 -0.2065869223967338E-16   6   5   4   3
 -0.3805627321909120E-15   6   5   4   4
 -0.8485443983017956E-02   6   5   5   1
 -0.2608203994995359E-01   6   5   5   2
 -0.3657738781118908E-16   6   5   5   3
 -0.1130639696122621E-03   6   5   5   4
 -0.4397216924313753E-15   6   5   5   5
  0.4164084024410659E-17   6   5   6   1
  0.1336075832558281E-15   6   5   6   2
 -0.3949548315661354E-16   6   5   6   3
  0.7721555774360461E-16   6   5   6   4
  0.1257232644693557E-01   6   5   6   5
  0.4486135282046737E+00   6   6   1   1
 -0.1822490753600872E-02   6   6   2   1
  0.3997080247787216E+00   6   6   2   2
  0.5358669237509606E-16   6   6   3   1
  0.4610027637408365E-15   6   6   3   2
  0.3857154388911247E+00   6   6   3   3
  0.7898201474240992E-02   6   6   4   1
  0.3501805164602453E-01   6   6   4   2
  0.5898059818321144E-16   6   6   4   3
  0.3591728607324487E+00   6   6   4   4
  0.2325160526489075E-16   6   6   5   1
  0.5717802105569467E-16   6   6   5   2
  0.5365774184697866E-16   6   6   5   3
 -0.2994182353078070E-18   6   6   5   4
  0.3683513792522357E+00   6   6   5   5
 -0.1616750896083239E-02   6   6   6   1
 -0.2247960118837825E-01   6   6   6   2
  0.3469446951953614E-16   6   6   6   3
 -0.1068510409749313E-02   6   6   6   4
 -0.6122960986693231E-16   6   6   6   5
  0.3366078904075592E+00   6   6   6   6
 -0.2834005156565845E-15   7   1   1   1
  0.2828216541102507E-16   7   1   2   1
 -0.3150904197044948E-16   7   1   2   2
 -0.1269757318392056E-01   7   1   3   1
 -0.1455398375619482E-01   7   1   3   2
 -0.7263513045556780E-18   7   1   3   3
  0.2705068538483573E-16   7   1   4   1
  0.5533496837822893E-16   7   1   4   2
  0.2995732246630341E-02   7   1   4   3
 -0.4808397581206290E-16   7   1   4   4
  0.2778177573600015E-16   7   1   5   1
  0.2970039628978482E-16   7   1   5   2
  0.4628045355874335E-17   7   1   5   3
 -0.1010051630733824E-16   7   1   5   4
 -0.3493050838249444E-16   7   1   5   5
 -0.8660779536777212E-17   7   1   6   1
  0.3081844675290046E-16   7   1   6   2
  0.2464861620733184E-02   7   1   6   3
 -0.8104411239329146E-17   7   1   6   4
 -0.6002790182010477E-17   7   1   6   5
 -0.2991654864345231E-16   7   1   6   6
  0.8235619115454075E-02   7   1   7   1
  0.1487164506902766E-15   7   2   1   1
 -0.3305016681067873E-17   7   2   2   1
  0.2101207562489540E-15   7   2   2   2
 -0.1099155866077060E-01   7   2   3   1
 -0.3867207454690812E-01   7   2   3   2
  0.3214852423988072E-15   7   2   3   3
  0.5576674342309181E-16   7   2   4   1
  0.2430273050944148E-15   7   2   4   2
  0.1486095923900664E-01   7   2   4   3
  0.2302235394469421E-16   7   2   4   4
  0.2775817304127908E-16   7   2   5   1
  0.1222278279017901E-15   7   2   5   2
  0.2682119267348835E-16   7   2   5   3
 -0.3972145786653516E-16   7   2   5   4
  0.9571567197671985E-16   7   2   5   5
  0.3424552882260156E-16   7   2   6   1
 -0.4851804721872632E-16   7   2   6   2
  0.1309348695641364E-01   7   2   6   3
 -0.2816215143031098E-16   7   2   6   4
 -0.3430605176650328E-16   7   2   6   5
  0.3727430805619553E-15   7   2   6   6
  0.7034804069198768E-02   7   2   7   1
  0.2481727733665598E-01   7   2   7   2
 -0.2756180387210752E+00   7   3   1   1
  0.5140342437296105E-02   7   3   2   1
 -0.1292859964024068E+00   7   3   2   2
  0.3849425932091893E-16   7   3   3   1
  0.4255493527005605E-15   7   3   3   2
 -0.1087217260820705E+00   7   3   3   3
  0.5857268864669848E-04   7   3   4   1
  0.3493902878764157E-01   7   3   4   2
  0.3220080452281948E-16   7   3   4   3
 -0.1286503503065388E+00   7   3   4   4
 -0.2004377832444671E-17   7   3   5   1
  0.7630945850462077E-16   7   3   5   2
 -0.5500390539380326E-16   7   3   5   3
  0.2901483944295953E-16   7   3   5   4
 -0.1347929029801632E+00   7   3   5   5
 -0.2163196248996396E-02   7   3   6   1
  0.3841402312416388E-01   7   3   6   2
  0.4163336342344337E-15   7   3   6   3
  0.3136446696068117E-01   7   3   6   4
  0.1585443721039140E-15   7   3   6   5
 -0.8840310377972796E-02   7   3   6   6
 -0.1544988095791844E-16   7   3   7   1
 -0.5421010862427522E-16   7   3   7   2
  0.6940082622748853E-01   7   3   7   3
  0.1164450896163068E-14   7   4   1   1
 -0.1245858410468988E-16   7   4   2   1
  0.7061159223577334E-15   7   4   2   2
  0.5705631368596173E-02   7   4   3   1
  0.3756601513567073E-01   7   4   3   2
  0.5751135953925738E-15   7   4   3   3
 -0.1109189644429506E-16   7   4   4   1
 -0.2028271214177257E-15   7   4   4   2
 -0.8019493666095922E-02   7   4   4   3
  0.6940056606950454E-15   7   4   4   4
 -0.9705244140428550E-17   7   4   5   1
 -0.4564638015570409E-16   7   4   5   2
  0.2047990243100646E-16   7   4   5   3
  0.3729737635388659E-16   7   4   5   4
  0.6298178754275016E-15   7   4   5   5
  0.6389407749155603E-17   7   4   6   1
 -0.2398255205537936E-15   7   4   6   2
  0.1392828921995019E-01   7   4   6   3
 -0.1222980050563649E-15   7   4   6   4
 -0.3476219174051517E-16   7   4   6   5
  0.2803418921019831E-15   7   4   6   6
 -0.3727750153147058E-02   7   4   7   1
 -0.7062845357726442E-02   7   4   7   2
 -0.1821459649775647E-15   7   4   7   3
  0.2240153712483209E-01   7   4   7   4
  0.7148370334365166E-15   7   5   1   1
 -0.1103298838165071E-16   7   5   2   1
  0.3888849551739420E-15   7   5   2   2
  0.1055310279793164E-16   7   5   3   1
  0.9540249788102778E-16   7   5   3   2
  0.2746517674475696E-15   7   5   3   3
  0.1181109940339428E-17   7   5   4   1
 -0.7084809842190429E-16   7   5   4   2
  0.2634963496152539E-16   7   5   4   3
  0.3720815254029441E-15   7   5   4   4
 -0.1015755212284956E-16   7   5   5   1
 -0.1022666932499183E-15   7   5   5   2
 -0.1250370391749440E-01   7   5   5   3
  0.7102177500105574E-16   7   5   5   4
  0.4630105259402545E-15   7   5   5   5
  0.3961092546272397E-17   7   5   6   1
 -0.1036563268069569E-15   7   5   6   2
  0.6219790709845990E-16   7   5   6   3
 -0.7945897900723541E-16   7   5   6   4
  0.8456612829467966E-17   7   5   6   5
  0.4686783299374845E-16   7   5   6   6
 -0.6691093476737926E-17   7   5   7   1
 -0.4004409602358635E-18   7   5   7   2
 -0.1588924256771523E-15   7   5   7   3
  0.4249836204624550E-16   7   5   7   4
  0.8004053555648677E-02   7   5   7   5
  0.1649462492532115E-15   7   6   1   1
  0.1472143262327974E-17   7   6   2   1
  0.1290432858751375E-15   7   6   2   2
  0.5419762999068390E-02   7   6   3   1
  0.5844235816607192E-01   7   6   3   2
  0.3074091252133212E-15   7   6   3   3
 -0.1938096086612565E-16   7   6   4   1
 -0.1715478887415189E-15   7   6   4   2
  0.2131325417068726E-01   7   6   4   3
  0.9191666157712414E-16   7   6   4   4
 -0.7690797216314283E-17   7   6   5   1
 -0.5074680750689289E-16   7   6   5   2
  0.7386125202798081E-16   7   6   5   3
 -0.2310356643554115E-16   7   6   5   4
  0.1724516025225111E-15   7   6   5   5
  0.9095386848057474E-17   7   6   6   1
 -0.1496198998029996E-15   7   6   6   2
  0.3419431982891066E-01   7   6   6   3
 -0.4683753385137379E-16   7   6   6   4
 -0.9410346950994347E-16   7   6   6   5
  0.1127308465480175E-14   7   6   6   6
 -0.3338190367224882E-02   7   6   7   1
  0.5084607925159242E-02   7   6   7   2
  0.1873501354054952E-15   7   6   7   3
  0.2766108945032080E-01   7   6   7   4
  0.1104180909885733E-15   7   6   7   5
  0.8907657969653990E-01   7   6   7   6
  0.4720681318723438E+00   7   7   1   1
 -0.2886755642018186E-02   7   7   2   1
  0.3987209902468457E+00   7   7   2   2
 -0.1992221491942114E-16   7   7   3   1
 -0.2038300084272748E-15   7   7   3   2
  0.3997762119268197E+00   7   7   3   3
  0.1880225661561364E-02   7   7   4   1
  0.1023862243234220E-01   7   7   4   2
 -0.1092875789865388E-15   7   7   4   3
  0.3736375580573280E+00   7   7   4   4
  0.2362293342100428E-17   7   7   5   1
 -0.1255827239209597E-16   7   7   5   2
  0.3099724864290539E-16   7   7   5   3
  0.1028628160629938E-16   7   7   5   4
  0.3743071600212382E+00   7   7   5   5
  0.6512210513325359E-03   7   7   6   1
 -0.1773456491853648E-01   7   7   6   2
 -0.2844946500601964E-15   7   7   6   3
  0.5801976719713997E-03   7   7   6   4
 -0.4258273329817934E-16   7   7   6   5
  0.3325823933079659E+00   7   7   6   6
  0.3469446951953614E-17   7   7   7   1
  0.2081668171172169E-16   7   7   7   2
 -0.1858612159817821E-01   7   7   7   3
 -0.1179611963664229E-15   7   7   7   4
  0.6232286444769380E-16   7   7   7   5
 -0.4996003610813204E-15   7   7   7   6
  0.3445813874452344E+00   7   7   7   7
  0.4496685387439646E-14   8   1   1   1
 -0.7883725539949306E-15   8   1   2   1
 -0.1022200905328124E-15   8   1   2   2
 -0.3917150983201033E-02   8   1   3   1
 -0.4500265562487019E-02   8   1   3   2
  0.1698660245682571E-16   8   1   3   3
 -0.3649499554411379E-15   8   1   4   1
 -0.5834422232993929E-15   8   1   4   2
  0.1423446898789940E-02   8   1   4   3
  0.4997550176966522E-15   8   1   4   4
  0.1908350256948211E-15   8   1   5   1
  0.1726683279037551E-15   8   1   5   2
  0.1791100548107279E-17   8   1   5   3
 -0.6157542625160073E-16   8   1   5   4
  0.1304399162311660E-15   8   1   5   5
  0.4869232548839481E-15   8   1   6   1
  0.1689932373726000E-15   8   1   6   2
  0.6590523444656212E-03   8   1   6   3
  0.4361203238822942E-16   8   1   6   4
 -0.4851169930096608E-16   8   1   6   5
 -0.1228637312087678E-15   8   1   6   6
  0.2545202637917263E-02   8   1   7   1
  0.2266414452926876E-02   8   1   7   2
 -0.9917739372811152E-16   8   1   7   3
 -0.1433392835989773E-02   8   1   7   4
 -0.2286474314701103E-17   8   1   7   5
 -0.1001524115704391E-02   8   1   7   6
  0.2703407392249462E-16   8   1   7   7
  0.7991248136426024E-03   8   1   8   1
 -0.5751640628093345E-14   8   2   1   1
  0.1208207795963534E-15   8   2   2   1
 -0.2132553328360282E-14   8   2   2   2
 -0.2311122815431896E-02   8   2   3   1
  0.1824772179202901E-01   8   2   3   2
 -0.5071537800176913E-15   8   2   3   3
 -0.4188709214279340E-15   8   2   4   1
 -0.2741269667858037E-15   8   2   4   2
  0.3291149548819390E-01   8   2   4   3
 -0.1290638501513418E-14   8   2   4   4
  0.9007470307168196E-16   8   2   5   1
  0.1551442382465774E-15   8   2   5   2
  0.4298406921420712E-16   8   2   5   3
 -0.6400975666966913E-16   8   2   5   4
 -0.2351558362442708E-14   8   2   5   5
  0.8203265278229643E-16   8   2   6   1
  0.1193706591906540E-14   8   2   6   2
  0.8779864561103424E-02   8   2   6   3
  0.6440160904563896E-15   8   2   6   4
 -0.9983778149197764E-16   8   2   6   5
 -0.3485327284601780E-15   8   2   6   6
  0.1593433115892366E-02   8   2   7   1
  0.1163216525678407E-01   8   2   7   2
  0.1139713323716762E-14   8   2   7   3
 -0.6461272504735098E-03   8   2   7   4
  0.1743889275362651E-16   8   2   7   5
  0.1589851687403563E-01   8   2   7   6
 -0.1963724133322825E-15   8   2   7   7
  0.7378531561319378E-03   8   2   8   1
  0.3582046615004222E-01   8   2   8   2
 -0.4975983283305859E-01   8   3   1   1
  0.2930393120959272E-02   8   3   2   1
  0.2700426785452703E-01   8   3   2   2
  0.1029314437503426E-16   8   3   3   1
  0.1834957966823092E-14   8   3   3   2
  0.3743412494806271E-01   8   3   3   3
  0.5786609505582631E-02   8   3   4   1
  0.6445341397660036E-01   8   3   4   2
  0.6424982074149099E-15   8   3   4   3
 -0.1766490177987400E-01   8   3   4   4
  0.2551521499155513E-17   8   3   5   1
  0.6340685422915407E-16   8   3   5   2
 -0.1006557015837732E-16   8   3   5   3
  0.2109320335553768E-16   8   3   5   4
 -0.1931314365110538E-01   8   3   5   5
 -0.2947034203087482E-02   8   3   6   1
  0.2551849576692942E-02   8   3   6   2
  0.8413408858487514E-15   8   3   6   3
  0.1632903324824721E-01   8   3   6   4
  0.6705969955133753E-16   8   3   6   5
  0.3105392538838852E-01   8   3   6   6
 -0.5149960319306146E-18   8   3   7   1
  0.3807718029769092E-15   8   3   7   2
  0.3237094248301148E-01   8   3   7   3
  0.6635317295611287E-15   8   3   7   4
 -0.7998818509075273E-16   8   3   7   5
  0.1137978600240785E-14   8   3   7   6
  0.2107787970877798E-01   8   3   7   7
 -0.1632977878352621E-15   8   3   8   1
  0.2047732643173372E-14   8   3   8   2
  0.7965184292520062E-01   8   3   8   3
 -0.6689558775065744E-14   8   4   1   1
  0.1737916790187956E-15   8   4   2   1
 -0.2104400057032050E-14   8   4   2   2
  0.7108194164971418E-02   8   4   3   1
  0.6987279450013625E-01   8   4   3   2
 -0.1011180546890128E-14   8   4   3   3
 -0.5656655428353669E-16   8   4   4   1
  0.4959140736948697E-15   8   4   4   2
  0.5468719185379053E-02   8   4   4   3
 -0.2700646219839016E-14   8   4   4   4
 -0.3470813488706310E-16   8   4   5   1
 -0.8543374782693570E-16   8   4   5   2
  0.3791107646874921E-16   8   4   5   3
  0.5029655604318518E-16   8   4   5   4
 -0.2367669451891921E-14   8   4   5   5
 -0.6783802171264966E-16   8   4   6   1
  0.7749877128926386E-15   8   4   6   2
  0.1570008282158354E-01   8   4   6   3
  0.7246807320893112E-15   8   4   6   4
 -0.3055342592249806E-16   8   4   6   5
 -0.1348461413811983E-15   8   4   6   6
 -0.4520635173417585E-02   8   4   7   1
 -0.1142772207079052E-01   8   4   7   2
  0.1335737076502141E-14   8   4   7   3
  0.2562769601013608E-01   8   4   7   4
  0.5128148904719417E-16   8   4   7   5
  0.3071535707098622E-01   8   4   7   6
 -0.4448976463195580E-15   8   4   7   7
 -0.1499032729990003E-02   8   4   8   1
  0.1515796308902806E-01   8   4   8   2
  0.2352718714293545E-14   8   4   8   3
  0.4821176423082366E-01   8   4   8   4
  0.2450765292566818E-14   8   5   1   1
 -0.7077441645366960E-16   8   5   2   1
  0.8504907790492765E-15   8   5   2   2
  0.6561031057772109E-17   8   5   3   1
  0.6953259233013633E-16   8   5   3   2
  0.6317692310465091E-15   8   5   3   3
  0.2278249526195390E-16   8   5   4   1
 -0.1158173207577263E-15   8   5   4   2
  0.2929914446285351E-16   8   5   4   3
  0.7767239488135498E-15   8   5   4   4
 -0.2882681700650385E-15   8   5   5   1
 -0.1133057926647166E-14   8   5   5   2
 -0.1054902073066062E-01   8   5   5   3
  0.2644646525766156E-16   8   5   5   4
  0.9376958925166572E-15   8   5   5   5
  0.2270624662161342E-16   8   5   6   1
 -0.2748010755298252E-15   8   5   6   2
  0.2427667176463534E-16   8   5   6   3
 -0.1475262904680474E-15   8   5   6   4
  0.3680200901812325E-15   8   5   6   5
  0.1902561988913306E-15   8   5   6   6
 -0.4158580406325038E-17   8   5   7   1
 -0.6021279572151612E-17   8   5   7   2
 -0.3323336936141460E-15   8   5   7   3
  0.1732560612079940E-16   8   5   7   4
  0.4985074845221782E-02   8   5   7   5
  0.1634168036050885E-16   8   5   7   6
  0.2466851570633940E-15   8   5   7   7
 -0.1313360768894042E-17   8   5   8   1
  0.3554959715152170E-16   8   5   8   2
 -0.6236736824393158E-16   8   5   8   3
  0.4156561290945419E-16   8   5   8   4
  0.8157574647130785E-02   8   5   8   5
  0.6662596476624422E-14   8   6   1   1
 -0.1251874991372453E-15   8   6   2   1
  0.3738082391779550E-14   8   6   2   2
 -0.2177446902367935E-03   8   6   3   1
 -0.3136331225593507E-02   8   6   3   2
  0.3139305079369286E-14   8   6   3   3
  0.2526717810505299E-15   8   6   4   1
  0.4498236229029742E-15   8   6   4   2
  0.8293644880645049E-02   8   6   4   3
  0.2890159167762889E-14   8   6   4   4
 -0.4626934091458845E-16   8   6   5   1
 -0.2000303717443244E-15   8   6   5   2
  0.1473731128882676E-16   8   6   5   3
  0.3185854536673872E-16   8   6   5   4
  0.3240497647150645E-14   8   6   5   5
 -0.1480437236893921E-16   8   6   6   1
 -0.9101335136929567E-15   8   6   6   2
 -0.4181911894598309E-02   8   6   6   3
 -0.5147249813874932E-15   8   6   6   4
  0.3972656293484630E-16   8   6   6   5
  0.7324354623122390E-15   8   6   6   6
  0.1293579890404367E-03   8   6   7   1
  0.3069791399073251E-02   8   6   7   2
 -0.7657177843178875E-15   8   6   7   3
 -0.3663463318981618E-02   8   6   7   4
 -0.2039153607061530E-16   8   6   7   5
 -0.1223112829256950E-01   8   6   7   6
  0.1136473011812191E-14   8   6   7   7
  0.7996597138448644E-04   8   6   8   1
  0.1262786893773831E-01   8   6   8   2
  0.6816379058416366E-15   8   6   8   3
 -0.8607121297802170E-03   8   6   8   4
  0.1100430888156994E-16   8   6   8   5
  0.1656597401439472E-01   8   6   8   6
  0.1094222248549955E+00   8   7   1   1
 -0.1293765456266806E-02   8   7   2   1
  0.7626922725674321E-01   8   7   2   2
  0.1136006707539577E-15   8   7   3   1
  0.1111524067232139E-14   8   7   3   2
  0.7506248072588045E-01   8   7   3   3
 -0.1131526554958569E-02   8   7   4   1
 -0.8913484918942012E-02   8   7   4   2
  0.5529431079676073E-15   8   7   4   3
  0.7949908504002359E-01   8   7   4   4
 -0.2203090998610104E-18   8   7   5   1
 -0.1832973386191858E-16   8   7   5   2
 -0.3164071859540111E-16   8   7   5   3
  0.3255253065991049E-17   8   7   5   4
  0.7096893408497107E-01   8   7   5   5
  0.8597953024413940E-03   8   7   6   1
 -0.9384367087945426E-02   8   7   6   2
  0.1431146867680866E-15   8   7   6   3
 -0.7991278913239254E-02   8   7   6   4
 -0.5771615889810815E-16   8   7   6   5
  0.2108242689501775E-01   8   7   6   6
 -0.8758998300967269E-16   8   7   7   1
 -0.8890457814381136E-16   8   7   7   2
 -0.2068189610092903E-01   8   7   7   3
  0.4805184028455756E-15   8   7   7   4
  0.8280077148812482E-16   8   7   7   5
  0.6730727086790012E-15   8   7   7   6
  0.2424264391790640E-01   8   7   7   7
  0.3661808134275066E-16   8   7   8   1
  0.6151221025596509E-15   8   7   8   2
  0.7405589219145292E-02   8   7   8   3
  0.5239813574350882E-15   8   7   8   4
  0.1247731493771334E-15   8   7   8   5
  0.9185360805297194E-15   8   7   8   6
  0.2214394157886573E-01   8   7   8   7
  0.5037347264394996E+00   8   8   1   1
  0.2129736817094094E-03   8   8   2   1
  0.5032820985798954E+00   8   8   2   2
  0.3061109308741261E-15   8   8   3   1
  0.5601855784798104E-14   8   8   3   2
  0.5152004161193066E+00   8   8   3   3
  0.2298035973369403E-02   8   8   4   1
  0.2881742098276260E-01   8   8   4   2
  0.2521420572332289E-14   8   8   4   3
  0.4641165547157953E+00   8   8   4   4
  0.1376118025626797E-17   8   8   5   1
  0.4499185318732961E-17   8   8   5   2
  0.1162684707645202E-15   8   8   5   3
  0.1348195041211390E-16   8   8   5   4
  0.4499057796513702E+00   8   8   5   5
 -0.8334026774519283E-03   8   8   6   1
 -0.2279573466885795E-01   8   8   6   2
  0.1575128916186941E-14   8   8   6   3
 -0.1209635011486673E-01   8   8   6   4
 -0.1098065059541531E-15   8   8   6   5
  0.3506085412719517E+00   8   8   6   6
 -0.1599198204416119E-15   8   8   7   1
  0.5967448757360216E-15   8   8   7   2
 -0.3088729689107172E-01   8   8   7   3
  0.2019218126037003E-14   8   8   7   4
  0.1346399067512290E-15   8   8   7   5
  0.3608224830031759E-14   8   8   7   6
  0.3521189611942406E+00   8   8   7   7
 -0.8840313463903682E-16   8   8   8   1
  0.4008512272113407E-14   8   8   8   2
  0.7396923422758314E-01   8   8   8   3
  0.4438290013286661E-14   8   8   8   4
  0.1292235908008985E-15   8   8   8   5
  0.2726985304235541E-14   8   8   8   6
  0.5872676936010102E-01   8   8   8   7
  0.5059429676225392E+00   8   8   8   8
 -0.3631178392395575E-14   9   1   1   1
  0.5089985521530824E-15   9   1   2   1
 -0.1800722299043686E-15   9   1   2   2
 -0.4799971764524622E-16   9   1   3   1
 -0.5237863113317527E-16   9   1   3   2
 -0.7911976982152186E-16   9   1   3   3
 -0.3030079311607721E-15   9   1   4   1
 -0.6505349344892000E-16   9   1   4   2
  0.1608688271323851E-16   9   1   4   3
 -0.1713915525366088E-16   9   1   4   4
 -0.3755251540394752E-01   9   1   5   1
 -0.3409025239823626E-01   9   1   5   2
  0.3912869651851031E-16   9   1   5   3
  0.1218639658894188E-01   9   1   5   4
 -0.3342979003047025E-16   9   1   5   5
 -0.9526069254485244E-16   9   1   6   1
  0.1317087802177089E-15   9   1   6   2
  0.9924352935611903E-17   9   1   6   3
  0.3290558088254142E-17   9   1   6   4
  0.9721822730797150E-02   9   1   6   5
 -0.8202351746327692E-16   9   1   6   6
 -0.1669074396181230E-16   9   1   7   1
 -0.1563083718077793E-16   9   1   7   2
  0.2872673979828274E-16   9   1   7   3
  0.1335504699758900E-17   9   1   7   4
  0.1063457999687774E-16   9   1   7   5
  0.1614504881114698E-17   9   1   7   6
 -0.2847810684365893E-16   9   1   7   7
 -0.2329294881250917E-15   9   1   8   1
 -0.1000216703892043E-15   9   1   8   2
 -0.2200425107448189E-16   9   1   8   3
  0.3002103477083429E-16   9   1   8   4
  0.3292039124850669E-15   9   1   8   5
  0.5353047174808833E-16   9   1   8   6
 -0.4914063787836035E-19   9   1   8   7
 -0.1577470890551437E-16   9   1   8   8
  0.4692541622753772E-01   9   1   9   1
  0.3165684725862895E-14   9   2   1   1
 -0.1305714955861012E-15   9   2   2   1
  0.9202152517046656E-15   9   2   2   2
 -0.2724136100363693E-16   9   2   3   1
  0.6500763737304724E-16   9   2   3   2
  0.2773553169728492E-15   9   2   3   3
  0.2183524829549432E-16   9   2   4   1
 -0.3037263010349935E-15   9   2   4   2
  0.1940306039327691E-15   9   2   4   3
  0.9403130469451901E-15   9   2   4   4
 -0.1899074444366162E-01   9   2   5   1
 -0.3957226199915032E-01   9   2   5   2
  0.3277083556074152E-16   9   2   5   3
  0.1314354257673280E-01   9   2   5   4
  0.1419129985835009E-14   9   2   5   5
  0.7504449869811001E-16   9   2   6   1
 -0.3885444910090367E-15   9   2   6   2
  0.6251059701939478E-16   9   2   6   3
 -0.2727927432334521E-15   9   2   6   4
  0.1787703490995048E-01   9   2   6   5
  0.5998810879393048E-16   9   2   6   6
 -0.6128821654273705E-17   9   2   7   1
  0.3554393671585659E-16   9   2   7   2
 -0.5172824981680961E-15   9   2   7   3
  0.5210905955602373E-17   9   2   7   4
 -0.1272537086637182E-16   9   2   7   5